<?xml version="1.0" encoding="UTF-8"?>
<UPF version="2.0.1">
  <PP_INFO><![CDATA[
Generated using "atomic" code by A. Dal Corso  v.6.3MaX
Author: MS
Generation date: 11Apr2023
Pseudopotential type: PAW
Element: Es
Functional:  SLA  PW   PSX  PSC
    Suggested minimum cutoff for wavefunctions:  70. Ry
    Suggested minimum cutoff for charge density: 363. Ry
    The Pseudo was generated with a Scalar-Relativistic Calculation
    Local Potential according to Troullier-Martins recipe, cutoff radius:   1.2500
    Pseudopotential contains additional information for GIPAW reconstruction.
    Valence configuration:
    nl pn  l   occ       Rcut    Rcut US       E pseu
    6S  1  0  2.00      1.200      1.600    -4.281359
    7S  2  0  2.00      1.200      1.600    -0.296780
    6P  2  1  6.00      1.300      2.000    -1.806985
    6D  3  2  0.00      1.400      2.200    -0.047245
    5F  4  3 11.00      1.300      1.800    -0.334740
    Generation configuration:
    6S  1  0  2.00      1.200      1.600    -4.281387
    7S  2  0  2.00      1.200      1.600    -0.296791
    6P  2  1  6.00      1.300      2.000    -1.807009
    7P  3  1  0.00      1.300      2.000     4.000000
    6D  3  2  0.00      1.400      2.200    -0.047255
    6D  3  2  0.00      1.400      2.200     3.500000
    5F  4  3 11.00      1.300      1.800    -0.334777
    5F  4  3  0.00      1.200      1.950     1.100000
    Pseudization used: troullier-martins
]]>
    <PP_INPUTFILE><![CDATA[
 &input
   title='Einsteinium',
   atom='Es'
   rel=1,
   config='[Rn] 6d0.0 7s2.0 7p0.0 5f11.0',
   iswitch=3,
   dft='PBESOL'
   iswitch = 3
 /
 &inputp
   lpaw=.true.,
   pseudotype=3,
   file_pseudopw='Es.paw.z_21.ld1.uni-marburg.v0.upf',
   author='MS',
   lloc=-2,
   rcloc=1.25,
   which_augfun='PSQ',
   rmatch_augfun_nc=.true.,
   nlcc=.true.,
   new_core_ps=.true.,
   rcore=1.00,
   tm=.true.
   lgipaw_reconstruction=.true.,
   use_paw_as_gipaw=.true.,
 /
8
6S  1  0  2.00  0.00  1.20  1.60  0.0
7S  2  0  2.00  0.00  1.20  1.60  0.0
6P  2  1  6.00  0.00  1.30  2.00  0.0
7P  3  1  0.00  4.00  1.30  2.00  0.0
6D  3  2  0.00  0.00  1.40  2.20  0.0
6D  3  2  0.00  3.50  1.40  2.20  0.0
5F  4  3 11.00  0.00  1.30  1.80  0.0
5F  4  3  0.00  1.10  1.20  1.95  0.0
]]></PP_INPUTFILE>
  </PP_INFO>
  <!--
 END OF HUMAN READABLE SECTION 
-->
  <PP_HEADER generated="Generated using &quot;atomic&quot; code by A. Dal Corso  v.6.3MaX" author="MS" date="11Apr2023" comment="" element="Es" pseudo_type="PAW" relativistic="scalar" is_ultrasoft="true" is_paw="true" is_coulomb="false" has_so="false" has_wfc="true" has_gipaw="true" paw_as_gipaw="true" core_correction="true" functional=" SLA  PW   PSX  PSC" z_valence="2.100000000000e1" total_psenergy="-1.310057008030e3" wfc_cutoff="6.962468474580e1" rho_cutoff="3.628091611465e2" l_max="3" l_max_rho="6" l_local="-2" mesh_size="1297" number_of_wfc="5" number_of_proj="8"/>
  <PP_MESH dx="1.250000000000e-2" mesh="1297" xmin="-7.000000000000e0" rmax="1.000000000000e2" zmesh="9.900000000000e1">
    <PP_R>
      9.210928944995114e-6 9.326788168373962e-6 9.444104721379619e-6 9.562896934962163e-6
      9.683183370646663e-6 9.804982823433422e-6 9.928314324734732e-6 1.005319714534860e-5
      1.017965079846980e-5 1.030769504273894e-5 1.043734988532967e-5 1.056863558507494e-5
      1.070157265563243e-5 1.083618186868987e-5 1.097248425721069e-5 1.111050111872039e-5
      1.125025401863438e-5 1.139176479362760e-5 1.153505555504654e-5 1.168014869236422e-5
      1.182706687667853e-5 1.197583306425468e-5 1.212647050011213e-5 1.227900272165672e-5
      1.243345356235839e-5 1.258984715547525e-5 1.274820793782439e-5 1.290856065360025e-5
      1.307093035824089e-5 1.323534242234303e-5 1.340182253562618e-5 1.357039671094673e-5
      1.374109128836256e-5 1.391393293924866e-5 1.408894867046464e-5 1.426616582857456e-5
      1.444561210411995e-5 1.462731553594642e-5 1.481130451558488e-5 1.499760779168774e-5
      1.518625447452093e-5 1.537727404051244e-5 1.557069633685809e-5 1.576655158618517e-5
      1.596487039127492e-5 1.616568373984408e-5 1.636902300938694e-5 1.657491997207805e-5
      1.678340679973671e-5 1.699451606885395e-5 1.720828076568257e-5 1.742473429139134e-5
      1.764391046728404e-5 1.786584354008405e-5 1.809056818728555e-5 1.831811952257187e-5
      1.854853310130209e-5 1.878184492606668e-5 1.901809145231290e-5 1.925730959404118e-5
      1.949953672957283e-5 1.974481070739058e-5 1.999316985205249e-5 2.024465297018019e-5
      2.049929935652257e-5 2.075714880009554e-5 2.101824159039929e-5 2.128261852371348e-5
      2.155032090947180e-5 2.182139057671671e-5 2.209586988063520e-5 2.237380170917694e-5
      2.265522948975559e-5 2.294019719603441e-5 2.322874935479734e-5 2.352093105290620e-5
      2.381678794434579e-5 2.411636625735731e-5 2.441971280166165e-5 2.472687497577357e-5
      2.503790077440766e-5 2.535283879597776e-5 2.567173825019049e-5 2.599464896573434e-5
      2.632162139806564e-5 2.665270663729213e-5 2.698795641615606e-5 2.732742311811744e-5
      2.767115978553908e-5 2.801922012797463e-5 2.837165853056073e-5 2.872853006251482e-5
      2.908989048573983e-5 2.945579626353705e-5 2.982630456942876e-5 3.020147329609152e-5
      3.058136106440217e-5 3.096602723259740e-5 3.135553190554857e-5 3.174993594415334e-5
      3.214930097484512e-5 3.255368939922248e-5 3.296316440379948e-5 3.337778996987860e-5
      3.379763088354821e-5 3.422275274580517e-5 3.465322198280539e-5 3.508910585624296e-5
      3.553047247385988e-5 3.597739080008817e-5 3.642993066682556e-5 3.688816278434690e-5
      3.735215875235284e-5 3.782199107115738e-5 3.829773315301624e-5 3.877945933359761e-5
      3.926724488359728e-5 3.976116602049984e-5 4.026129992048779e-5 4.076772473050060e-5
      4.128051958044512e-5 4.179976459555997e-5 4.232554090893514e-5 4.285793067418929e-5
      4.339701707830646e-5 4.394288435463404e-5 4.449561779604450e-5 4.505530376826265e-5
      4.562202972336026e-5 4.619588421342094e-5 4.677695690437622e-5 4.736533859001627e-5
      4.796112120617654e-5 4.856439784510289e-5 4.917526276999761e-5 4.979381142974800e-5
      5.042014047384058e-5 5.105434776746277e-5 5.169653240679446e-5 5.234679473449217e-5
      5.300523635536751e-5 5.367196015226339e-5 5.434707030212951e-5 5.503067229230025e-5
      5.572287293697748e-5 5.642378039392019e-5 5.713350418134453e-5 5.785215519503622e-5
      5.857984572567819e-5 5.931668947639648e-5 6.006280158052622e-5 6.081829861960161e-5
      6.158329864157209e-5 6.235792117924750e-5 6.314228726897538e-5 6.393651946955301e-5
      6.474074188137761e-5 6.555508016583724e-5 6.637966156494559e-5 6.721461492122398e-5
      6.806007069783300e-5 6.891616099895785e-5 6.978301959044984e-5 7.066078192072737e-5
      7.154958514194066e-5 7.244956813140099e-5 7.336087151328174e-5 7.428363768059026e-5
      7.521801081741755e-5 7.616413692146744e-5 7.712216382686830e-5 7.809224122727344e-5
      7.907452069925023e-5 8.006915572596458e-5 8.107630172116325e-5 8.209611605345668e-5
      8.312875807090940e-5 8.417438912593747e-5 8.523317260052050e-5 8.630527393173077e-5
      8.739086063758215e-5 8.849010234320634e-5 8.960317080735615e-5 9.073023994924359e-5
      9.187148587571539e-5 9.302708690876910e-5 9.419722361341742e-5 9.538207882590113e-5
      9.658183768225763e-5 9.779668764724942e-5 9.902681854365481e-5 1.002724225819294e-4
      1.015336943902382e-4 1.028108310448673e-4 1.041040321010177e-4 1.054134996239849e-4
      1.067394382207339e-4 1.080820550718679e-4 1.094415599640015e-4 1.108181653225403e-4
      1.122120862448718e-4 1.136235405339764e-4 1.150527487324584e-4 1.164999341570063e-4
      1.179653229332874e-4 1.194491440312790e-4 1.209516293010467e-4 1.224730135089707e-4
      1.240135343744287e-4 1.255734326069403e-4 1.271529519437778e-4 1.287523391880512e-4
      1.303718442472714e-4 1.320117201723987e-4 1.336722231973833e-4 1.353536127792003e-4
      1.370561516383932e-4 1.387801058001227e-4 1.405257446357336e-4 1.422933409048458e-4
      1.440831707979723e-4 1.458955139796756e-4 1.477306536322649e-4 1.495888765000444e-4
      1.514704729341183e-4 1.533757369377570e-4 1.553049662123377e-4 1.572584622038595e-4
      1.592365301500453e-4 1.612394791280366e-4 1.632676221026856e-4 1.653212759754588e-4
      1.674007616339521e-4 1.695064040020299e-4 1.716385320905968e-4 1.737974790490038e-4
      1.759835822171062e-4 1.781971831779714e-4 1.804386278112529e-4 1.827082663472355e-4
      1.850064534215574e-4 1.873335481306251e-4 1.896899140877213e-4 1.920759194798207e-4
      1.944919371251205e-4 1.969383445312929e-4 1.994155239544726e-4 2.019238624589842e-4
      2.044637519778222e-4 2.070355893738915e-4 2.096397765020176e-4 2.122767202717377e-4
      2.149468327108806e-4 2.176505310299472e-4 2.203882376873008e-4 2.231603804551762e-4
      2.259673924865212e-4 2.288097123826765e-4 2.316877842619084e-4 2.346020578288038e-4
      2.375529884445365e-4 2.405410371980190e-4 2.435666709779483e-4 2.466303625457579e-4
      2.497325906094889e-4 2.528738398985873e-4 2.560546012396459e-4 2.592753716330953e-4
      2.625366543308621e-4 2.658389589150032e-4 2.691828013773281e-4 2.725687042000251e-4
      2.759971964372987e-4 2.794688137980361e-4 2.829840987295134e-4 2.865436005021525e-4
      2.901478752953478e-4 2.937974862843685e-4 2.974930037283564e-4 3.012350050594314e-4
      3.050240749729141e-4 3.088608055186878e-4 3.127457961937059e-4 3.166796540356656e-4
      3.206629937178581e-4 3.246964376452128e-4 3.287806160515498e-4 3.329161670980541e-4
      3.371037369729907e-4 3.413439799926723e-4 3.456375587036973e-4 3.499851439864750e-4
      3.543874151600509e-4 3.588450600882521e-4 3.633587752871684e-4 3.679292660339822e-4
      3.725572464771719e-4 3.772434397480971e-4 3.819885780739907e-4 3.867934028923703e-4
      3.916586649668890e-4 3.965851245046447e-4 4.015735512749627e-4 4.066247247296753e-4
      4.117394341249114e-4 4.169184786444196e-4 4.221626675244436e-4 4.274728201801649e-4
      4.328497663337393e-4 4.382943461439432e-4 4.438074103374487e-4 4.493898203417528e-4
      4.550424484197760e-4 4.607661778061556e-4 4.665619028452538e-4 4.724305291308989e-4
      4.783729736478882e-4 4.843901649152675e-4 4.904830431314140e-4 4.966525603209454e-4
      5.028996804834741e-4 5.092253797442361e-4 5.156306465066103e-4 5.221164816065597e-4
      5.286838984690140e-4 5.353339232662202e-4 5.420675950780822e-4 5.488859660545201e-4
      5.557901015798713e-4 5.627810804393576e-4 5.698599949876502e-4 5.770279513195485e-4
      5.842860694428130e-4 5.916354834531672e-4 5.990773417115022e-4 6.066128070233125e-4
      6.142430568203836e-4 6.219692833447700e-4 6.297926938350853e-4 6.377145107151351e-4
      6.457359717849249e-4 6.538583304140662e-4 6.620828557376197e-4 6.704108328544005e-4
      6.788435630277753e-4 6.873823638889920e-4 6.960285696430564e-4 7.047835312772087e-4
      7.136486167720163e-4 7.226252113151234e-4 7.317147175176915e-4 7.409185556335568e-4
      7.502381637811505e-4 7.596749981682063e-4 7.692305333192962e-4 7.789062623062294e-4
      7.887036969813453e-4 7.986243682137442e-4 8.086698261284907e-4 8.188416403488205e-4
      8.291414002414022e-4 8.395707151646723e-4 8.501312147203071e-4 8.608245490078472e-4
      8.716523888825302e-4 8.826164262163676e-4 8.937183741624983e-4 9.049599674228759e-4
      9.163429625193187e-4 9.278691380679687e-4 9.395402950572070e-4 9.513582571290573e-4
      9.633248708641378e-4 9.754420060701905e-4 9.877115560742428e-4 1.000135438018448e-3
      1.012715593159634e-3 1.025453987172637e-3 1.038352610457439e-3 1.051413478450168e-3
      1.064638631938024e-3 1.078030137378144e-3 1.091590087220498e-3 1.105320600234838e-3
      1.119223821841757e-3 1.133301924447916e-3 1.147557107785493e-3 1.161991599255883e-3
      1.176607654277748e-3 1.191407556639420e-3 1.206393618855754e-3 1.221568182529462e-3
      1.236933618716989e-3 1.252492328299003e-3 1.268246742355528e-3 1.284199322545814e-3
      1.300352561492972e-3 1.316708983173451e-3 1.333271143311417e-3 1.350041629778086e-3
      1.367023062996088e-3 1.384218096348914e-3 1.401629416595508e-3 1.419259744290082e-3
      1.437111834207209e-3 1.455188475772255e-3 1.473492493497246e-3 1.492026747422190e-3
      1.510794133561971e-3 1.529797584358855e-3 1.549040069140692e-3 1.568524594584879e-3
      1.588254205188158e-3 1.608231983742327e-3 1.628461051815928e-3 1.648944570242004e-3
      1.669685739611985e-3 1.690687800775783e-3 1.711954035348184e-3 1.733487766221604e-3
      1.755292358085304e-3 1.777371217951127e-3 1.799727795685843e-3 1.822365584550211e-3
      1.845288121744796e-3 1.868498988962669e-3 1.892001812949061e-3 1.915800266068034e-3
      1.939898066876305e-3 1.964298980704280e-3 1.989006820244384e-3 2.014025446146820e-3
      2.039358767622783e-3 2.065010743055294e-3 2.090985380617705e-3 2.117286738899979e-3
      2.143918927542860e-3 2.170886107880007e-3 2.198192493588212e-3 2.225842351345798e-3
      2.253840001499291e-3 2.282189818738494e-3 2.310896232780026e-3 2.339963729059484e-3
      2.369396849432301e-3 2.399200192883415e-3 2.429378416245881e-3 2.459936234928493e-3
      2.490878423652592e-3 2.522209817198118e-3 2.553935311159055e-3 2.586059862708385e-3
      2.618588491372642e-3 2.651526279816236e-3 2.684878374635624e-3 2.718649987163473e-3
      2.752846394282956e-3 2.787472939252255e-3 2.822535032539469e-3 2.858038152668010e-3
      2.893987847072627e-3 2.930389732966216e-3 2.967249498217504e-3 3.004572902239806e-3
      3.042365776890932e-3 3.080634027384437e-3 3.119383633212323e-3 3.158620649079332e-3
      3.198351205849024e-3 3.238581511501726e-3 3.279317852104543e-3 3.320566592793577e-3
      3.362334178768482e-3 3.404627136299540e-3 3.447452073747414e-3 3.490815682595702e-3
      3.534724738496520e-3 3.579186102329180e-3 3.624206721272241e-3 3.669793629889005e-3
      3.715953951226690e-3 3.762694897929424e-3 3.810023773365223e-3 3.857947972767163e-3
      3.906474984388904e-3 3.955612390674737e-3 4.005367869444373e-3 4.055749195092594e-3
      4.106764239804034e-3 4.158420974783220e-3 4.210727471500086e-3 4.263691902951167e-3
      4.317322544936635e-3 4.371627777353409e-3 4.426616085504541e-3 4.482296061425050e-3
      4.538676405224461e-3 4.595765926446199e-3 4.653573545444101e-3 4.712108294776248e-3
      4.771379320616310e-3 4.831395884182667e-3 4.892167363185481e-3 4.953703253291983e-3
      5.016013169610201e-3 5.079106848191323e-3 5.142994147551003e-3 5.207685050209740e-3
      5.273189664252691e-3 5.339518224909067e-3 5.406681096151416e-3 5.474688772315023e-3
      5.543551879737643e-3 5.613281178419917e-3 5.683887563706628e-3 5.755382067989121e-3
      5.827775862429158e-3 5.901080258704404e-3 5.975306710775914e-3 6.050466816677837e-3
      6.126572320329631e-3 6.203635113371090e-3 6.281667237020407e-3 6.360680883955661e-3
      6.440688400219939e-3 6.521702287150424e-3 6.603735203331793e-3 6.686799966574084e-3
      6.770909555915551e-3 6.856077113650655e-3 6.942315947383558e-3 7.029639532107495e-3
      7.118061512310239e-3 7.207595704106090e-3 7.298256097394673e-3 7.390056858046887e-3
      7.483012330118363e-3 7.577137038090729e-3 7.672445689141099e-3 7.768953175440112e-3
      7.866674576478838e-3 7.965625161425018e-3 8.065820391508861e-3 8.167275922438918e-3
      8.270007606848308e-3 8.374031496771723e-3 8.479363846153610e-3 8.586021113387863e-3
      8.694019963889478e-3 8.803377272698572e-3 8.914110127117125e-3 9.026235829378948e-3
      9.139771899353130e-3 9.254736077281597e-3 9.371146326551045e-3 9.489020836499757e-3
      9.608378025259739e-3 9.729236542634567e-3 9.851615273013469e-3 9.975533338322043e-3
      1.010101010101010e-2 1.022806516707712e-2 1.035671838913565e-2 1.048698986951339e-2
      1.061889996339419e-2 1.075246928199858e-2 1.088771869580436e-2 1.102466933780760e-2
      1.116334260682473e-2 1.130376017083617e-2 1.144594397037198e-2 1.158991622194013e-2
      1.173569942149781e-2 1.188331634796658e-2 1.203279006679150e-2 1.218414393354526e-2
      1.233740159757748e-2 1.249258700570995e-2 1.264972440597844e-2 1.280883835142142e-2
      1.296995370391658e-2 1.313309563806557e-2 1.329828964512749e-2 1.346556153700206e-2
      1.363493745026267e-2 1.380644385024037e-2 1.398010753515911e-2 1.415595564032297e-2
      1.433401564235614e-2 1.451431536349622e-2 1.469688297594143e-2 1.488174700625269e-2
      1.506893633981082e-2 1.525848022533003e-2 1.545040827942808e-2 1.564475049125387e-2
      1.584153722717343e-2 1.604079923551458e-2 1.624256765137155e-2 1.644687400146981e-2
      1.665375020909221e-2 1.686322859906710e-2 1.707534190281911e-2 1.729012326348349e-2
      1.750760624108481e-2 1.772782481778079e-2 1.795081340317211e-2 1.817660683967888e-2
      1.840524040798495e-2 1.863674983255051e-2 1.887117128719416e-2 1.910854140074515e-2
      1.934889726276663e-2 1.959227642935106e-2 1.983871692898837e-2 2.008825726850800e-2
      2.034093643909573e-2 2.059679392238602e-2 2.085586969663119e-2 2.111820424294805e-2
      2.138383855164318e-2 2.165281412861777e-2 2.192517300185296e-2 2.220095772797680e-2
      2.248021139891383e-2 2.276297764861827e-2 2.304930065989196e-2 2.333922517128793e-2
      2.363279648410093e-2 2.393006046944588e-2 2.423106357542523e-2 2.453585283438676e-2
      2.484447587027223e-2 2.515698090605891e-2 2.547341677129444e-2 2.579383290972653e-2
      2.611827938702876e-2 2.644680689862325e-2 2.677946677760210e-2 2.711631100274821e-2
      2.745739220665702e-2 2.780276368396068e-2 2.815247939965507e-2 2.850659399753232e-2
      2.886516280871885e-2 2.922824186032082e-2 2.959588788417884e-2 2.996815832573201e-2
      3.034511135299427e-2 3.072680586564309e-2 3.111330150422253e-2 3.150465865946258e-2
      3.190093848171483e-2 3.230220289050783e-2 3.270851458422185e-2 3.311993704988559e-2
      3.353653457309647e-2 3.395837224806495e-2 3.438551598778604e-2 3.481803253433815e-2
      3.525598946931153e-2 3.569945522436841e-2 3.614849909193516e-2 3.660319123602970e-2
      3.706360270322472e-2 3.752980543374852e-2 3.800187227272641e-2 3.847987698156224e-2
      3.896389424946437e-2 3.945399970511571e-2 3.995026992849068e-2 4.045278246282150e-2
      4.096161582671391e-2 4.147684952641628e-2 4.199856406824253e-2 4.252684097115111e-2
      4.306176277948305e-2 4.360341307585903e-2 4.415187649423997e-2 4.470723873315089e-2
      4.526958656907136e-2 4.583900786999503e-2 4.641559160915849e-2 4.699942787894413e-2
      4.759060790495702e-2 4.818922406027881e-2 4.879536987990186e-2 4.940914007534350e-2
      5.003063054944558e-2 5.065993841135922e-2 5.129716199171799e-2 5.194240085800295e-2
      5.259575583009950e-2 5.325732899605141e-2 5.392722372801192e-2 5.460554469839563e-2
      5.529239789623440e-2 5.598789064373761e-2 5.669213161306217e-2 5.740523084329240e-2
      5.812729975763364e-2 5.885845118082303e-2 5.959879935675776e-2 6.034845996634668e-2
      6.110755014558535e-2 6.187618850385844e-2 6.265449514247345e-2 6.344259167342592e-2
      6.424060123840231e-2 6.504864852802084e-2 6.586685980131426e-2 6.669536290545894e-2
      6.753428729575023e-2 6.838376405583104e-2 6.924392591817357e-2 7.011490728481855e-2
      7.099684424837678e-2 7.188987461329289e-2 7.279413791737843e-2 7.370977545361451e-2
      7.463693029222878e-2 7.557574730305138e-2 7.652637317814999e-2 7.748895645475179e-2
      7.846364753845229e-2 7.945059872671607e-2 8.044996423267454e-2 8.146190020922097e-2
      8.248656477341056e-2 8.352411803116640e-2 8.457472210229561e-2 8.563854114582202e-2
      8.671574138563532e-2 8.780649113646465e-2 8.891096083017791e-2 9.002932304241149e-2
      9.116175251953667e-2 9.230842620596292e-2 9.346952327178675e-2 9.464522514078723e-2
      9.583571551877300e-2 9.704118042228799e-2 9.826180820767563e-2 9.949778960051091e-2
      1.007493177254013e-1 1.020165881361621e-1 1.032997988463738e-1 1.045991503603201e-1
      1.059148457043189e-1 1.072470904584446e-1 1.085960927886501e-1 1.099620634792944e-1
      1.113452159660768e-1 1.127457663693875e-1 1.141639335280767e-1 1.155999390336477e-1
      1.170540072648829e-1 1.185263654229012e-1 1.200172435666606e-1 1.215268746489044e-1
      1.230554945525603e-1 1.246033421275986e-1 1.261706592283516e-1 1.277576907513053e-1
      1.293646846733641e-1 1.309918920905973e-1 1.326395672574751e-1 1.343079676265938e-1
      1.359973538889061e-1 1.377079900144522e-1 1.394401432936070e-1 1.411940843788449e-1
      1.429700873270284e-1 1.447684296422318e-1 1.465893923191003e-1 1.484332598867570e-1
      1.503003204532611e-1 1.521908657506241e-1 1.541051911803958e-1 1.560435958598184e-1
      1.580063826685674e-1 1.599938582960751e-1 1.620063332894513e-1 1.640441221020087e-1
      1.661075431423946e-1 1.681969188243449e-1 1.703125756170611e-1 1.724548440962208e-1
      1.746240589956330e-1 1.768205592595383e-1 1.790446880955721e-1 1.812967930283905e-1
      1.835772259539704e-1 1.858863431945967e-1 1.882245055545355e-1 1.905920783764130e-1
      1.929894315982997e-1 1.954169398115133e-1 1.978749823191517e-1 2.003639431953569e-1
      2.028842113453300e-1 2.054361805660973e-1 2.080202496080408e-1 2.106368222372064e-1
      2.132863072983902e-1 2.159691187790237e-1 2.186856758738593e-1 2.214364030504694e-1
      2.242217301155724e-1 2.270420922821881e-1 2.298979302376437e-1 2.327896902124303e-1
      2.357178240499265e-1 2.386827892770025e-1 2.416850491755066e-1 2.447250728546563e-1
      2.478033353243371e-1 2.509203175693217e-1 2.540765066244282e-1 2.572723956506171e-1
      2.605084840120511e-1 2.637852773541212e-1 2.671032876824526e-1 2.704630334429106e-1
      2.738650396026051e-1 2.773098377319202e-1 2.807979660875726e-1 2.843299696967137e-1
      2.879064004420941e-1 2.915278171482933e-1 2.951947856690398e-1 2.989078789756261e-1
      3.026676772464346e-1 3.064747679575955e-1 3.103297459747771e-1 3.142332136461380e-1
      3.181857808964441e-1 3.221880653223687e-1 3.262406922889972e-1 3.303442950275371e-1
      3.344995147342658e-1 3.387070006707168e-1 3.429674102651268e-1 3.472814092151639e-1
      3.516496715919399e-1 3.560728799453388e-1 3.605517254106658e-1 3.650869078166357e-1
      3.696791357947276e-1 3.743291268899050e-1 3.790376076727374e-1 3.838053138529273e-1
      3.886329903942640e-1 3.935213916310305e-1 3.984712813858642e-1 4.034834330891105e-1
      4.085586298996711e-1 4.136976648273717e-1 4.189013408568769e-1 4.241704710731516e-1
      4.295058787885130e-1 4.349083976712723e-1 4.403788718759951e-1 4.459181561754069e-1
      4.515271160939481e-1 4.572066280430178e-1 4.629575794579143e-1 4.687808689364947e-1
      4.746774063795894e-1 4.806481131331688e-1 4.866939221323113e-1 4.928157780469744e-1
      4.990146374295978e-1 5.052914688645739e-1 5.116472531195825e-1 5.180829832988455e-1
      5.245996649982979e-1 5.311983164627117e-1 5.378799687448050e-1 5.446456658663390e-1
      5.514964649812550e-1 5.584334365408534e-1 5.654576644610520e-1 5.725702462917562e-1
      5.797722933883458e-1 5.870649310853332e-1 5.944492988721965e-1 6.019265505714242e-1
      6.094978545188087e-1 6.171643937459937e-1 6.249273661653322e-1 6.327879847570598e-1
      6.407474777588217e-1 6.488070888575955e-1 6.569680773840102e-1 6.652317185091282e-1
      6.735993034436890e-1 6.820721396398602e-1 6.906515509955376e-1 6.993388780611984e-1
      7.081354782493722e-1 7.170427260467367e-1 7.260620132288795e-1 7.351947490777752e-1
      7.444423606019782e-1 7.538062927596052e-1 7.632880086841078e-1 7.728889899128878e-1
      7.826107366187976e-1 7.924547678445370e-1 8.024226217400134e-1 8.125158558026799e-1
      8.227360471208904e-1 8.330847926203345e-1 8.435637093135481e-1 8.541744345525860e-1
      8.649186262848552e-1 8.757979633121707e-1 8.868141455530800e-1 8.979688943084680e-1
      9.092639525305234e-1 9.207010850950752e-1 9.322820790773523e-1 9.440087440312299e-1
      9.558829122719612e-1 9.679064391624937e-1 9.800812034033681e-1 9.924091073262634e-1
      1.004892077191252e0 1.017532063487769e0 1.030331041239391e0 1.043291010312433e0
      1.056413995728426e0 1.069702047980546e0 1.083157243353986e0 1.096781684250400e0
      1.110577499516400e0 1.124546844776185e0 1.138691902768377e0 1.153014883687061e0
      1.167518025527148e0 1.182203594434060e0 1.197073885057812e0 1.212131220911571e0
      1.227377954734697e0 1.242816468860369e0 1.258449175587833e0 1.274278517559315e0
      1.290306968141707e0 1.306537031813020e0 1.322971244553723e0 1.339612174242997e0
      1.356462421059955e0 1.373524617889951e0 1.390801430735947e0 1.408295559135103e0
      1.426009736580576e0 1.443946730948626e0 1.462109344931123e0 1.480500416473446e0
      1.499122819217946e0 1.517979462952939e0 1.537073294067370e0 1.556407296011201e0
      1.575984489761567e0 1.595807934294823e0 1.615880727064512e0 1.636206004485337e0
      1.656786942423252e0 1.677626756691678e0 1.698728703553994e0 1.720096080232335e0
      1.741732225422771e0 1.763640519817015e0 1.785824386630631e0 1.808287292137946e0
      1.831032746213650e0 1.854064302881212e0 1.877385560868225e0 1.901000164168692e0
      1.924911802612424e0 1.949124212441582e0 1.973641176894454e0 1.998466526796624e0
      2.023604141159514e0 2.049057947786514e0 2.074831923886701e0 2.100930096696269e0
      2.127356544107826e0 2.154115395307536e0 2.181210831420345e0 2.208647086163275e0
      2.236428446506941e0 2.264559253345427e0 2.293043902174526e0 2.321886843778574e0
      2.351092584925882e0 2.380665689072915e0 2.410610777077372e0 2.440932527920169e0
      2.471635679436570e0 2.502725029056468e0 2.534205434553986e0 2.566081814806538e0
      2.598359150563383e0 2.631042485223907e0 2.664136925625649e0 2.697647642842244e0
      2.731579872991444e0 2.765938918053238e0 2.800730146698323e0 2.835958995126965e0
      2.871630967918393e0 2.907751638890943e0 2.944326651972931e0 2.981361722084569e0
      3.018862636030915e0 3.056835253406059e0 3.095285507508733e0 3.134219406269358e0
      3.173643033188831e0 3.213562548289072e0 3.253984189075521e0 3.294914271511801e0
      3.336359191006554e0 3.378325423412778e0 3.420819526039672e0 3.463848138677216e0
      3.507417984633688e0 3.551535871786149e0 3.596208693644233e0 3.641443430427250e0
      3.687247150154837e0 3.733627009751407e0 3.780590256164365e0 3.828144227496521e0
      3.876296354152649e0 3.925054160000493e0 3.974425263546429e0 4.024417379125818e0
      4.075038318108436e0 4.126295990118996e0 4.178198404273018e0 4.230753670428326e0
      4.283970000452167e0 4.337855709504383e0 4.392419217336653e0 4.447669049608070e0
      4.503613839217349e0 4.560262327651672e0 4.617623366352616e0 4.675705918099188e0
      4.734519058408253e0 4.794071976952655e0 4.854373978997065e0 4.915434486851992e0
      4.977263041346028e0 5.039869303316586e0 5.103263055119490e0 5.167454202157416e0
      5.232452774427697e0 5.298268928089500e0 5.364912947050718e0 5.432395244574924e0
      5.500726364908378e0 5.569916984927664e0 5.639977915807940e0 5.710920104712174e0
      5.782754636501735e0 5.855492735468347e0 5.929145767087968e0 6.003725239796649e0
      6.079242806788709e0 6.155710267837658e0 6.233139571139835e0 6.311542815181423e0
      6.390932250628829e0 6.471320282242837e0 6.552719470816959e0 6.635142535139998e0
      6.718602353983453e0 6.803111968113833e0 6.888684582330257e0 6.975333567527822e0
      7.063072462786725e0 7.151914977487873e0 7.241874993454949e0 7.332966567123448e0
      7.425203931737110e0 7.518601499571788e0 7.613173864187488e0 7.708935802708602e0
      7.805902278132828e0 7.904088441669258e0 8.003509635105678e0 8.104181393205849e0
      8.206119446136809e0 8.309339721926690e0 8.413858348953624e0 8.519691658465693e0
      8.626856187132844e0 8.735368679630724e0 8.845246091257030e0 8.956505590580901e0
      9.069164562125438e0 9.183240609084164e0 9.298751556071526e0 9.415715451907962e0
      9.534150572440199e0 9.654075423396744e0 9.775508743279561e0 9.898469506291962e0
      1.002297692530330e1 1.014905045485113e1 1.027670979418092e1 1.040597489032418e1
      1.053686594121519e1 1.066940339884692e1 1.080360797246681e1 1.093950063181249e1
      1.107710261038847e1 1.121643540878389e1 1.135752079803192e1 1.150038082301173e1
      1.164503780589282e1 1.179151434962308e1 1.193983334146053e1 1.209001795654933e1
      1.224209166154120e1 1.239607821826189e1 1.255200168742420e1 1.270988643238744e1
      1.286975712296418e1 1.303163873927514e1 1.319555657565215e1 1.336153624459068e1
      1.352960368075171e1 1.369978514501403e1 1.387210722857770e1 1.404659685711884e1
      1.422328129499693e1 1.440218814951487e1 1.458334537523263e1 1.476678127833535e1
      1.495252452105603e1 1.514060412615426e1 1.533104948145104e1 1.552389034442053e1
      1.571915684683996e1 1.591687949949756e1 1.611708919696009e1 1.631981722240015e1
      1.652509525248411e1 1.673295536232187e1 1.694343003047842e1 1.715655214404891e1
      1.737235500379722e1 1.759087232935916e1 1.781213826451151e1 1.803618738250674e1
      1.826305469147539e1 1.849277563989609e1 1.872538612213433e1 1.896092248405128e1
      1.919942152868263e1 1.944092052198937e1 1.968545719868055e1 1.993306976810937e1
      2.018379692024364e1 2.043767783171092e1 2.069475217192018e1 2.095506010926014e1
      2.121864231737554e1 2.148553998152271e1 2.175579480500465e1 2.202944901568737e1
      2.230654537259809e1 2.258712717260626e1 2.287123825718906e1 2.315892301928140e1
      2.345022641021270e1 2.374519394673048e1 2.404387171811238e1 2.434630639336792e1
      2.465254522853031e1 2.496263607404066e1 2.527662738222450e1 2.559456821486247e1
      2.591650825085660e1 2.624249779399243e1 2.657258778079935e1 2.690682978850942e1
      2.724527604311627e1 2.758797942753584e1 2.793499348986909e1 2.828637245176933e1
      2.864217121691428e1 2.900244537958477e1 2.936725123335180e1 2.973664577987213e1
      3.011068673779524e1 3.048943255178185e1 3.087294240163585e1 3.126127621155166e1
      3.165449465947702e1 3.205265918659451e1 3.245583200692159e1 3.286407611703160e1