<UPF version="2.0.1">
   <PP_INFO>
         UPF file from ATOMPAW code with following input
           Pr  59
           GGA-PBESOL  loggrid 2001 scalarrelativistic logderivrange -8 8 500
           6 5 5 4 0
           5 2 1
           4 3 2
           0 0 0
           c
           c
           c
           c
           v
           v
           c
           c
           c
           v
           c
           c
           v
           v
           3
           2.49 2.075 2.49 2.49
           n
           y
           2.0
           n
           y
           2.0
           n
           y
           2.0
           n
           VANDERBILT BESSELSHAPE
           4 0.0
           2.45
           2.45
           2.45
           2.45
           2.45
           2.45
           2.45
           2.45
           PWSCFOUT
           UPFDX  0.0125d0  UPFXMIN  -7.d0  UPFZMESH  59.0
           END
  </PP_INFO>
  <!--                               -->
  <!-- END OF HUMAN READABLE SECTION -->
  <PP_HEADER generated="Generated using ATOMPAW code"
             author="   "
             date=" 11/23/2022, 15:58:48.312"
             element="Pr"
             pseudo_type="PAW"
             relativistic="scalar"
             is_ultrasoft="T"
             is_paw="T"
             is_coulomb="F"
             has_so="F"
             has_wfc="T"
             has_gipaw="T"
             paw_as_gipaw="T"
             core_correction="T"
             functional="SLA PW PSX PSC"
             z_valence="13.000"
             l_max="3"
             l_max_rho="6"
             mesh_size="  1103"
             number_of_wfc="     8"
             number_of_proj=" 8"
                                    /> 
<PP_MESH dx=" 1.2500000000000E-02" mesh="  1103" xmin="-7.0000000000000E+00" zmesh=" 5.9000000000000E+01">
 <PP_R type="real" size="  1103" columns="3">
  1.54556265348223078E-05  1.56500343842207151E-05  1.58468875833319025E-05
  1.60462168908687109E-05  1.62480534524410150E-05  1.64524288054221845E-05
  1.66593748838769262E-05  1.68689240235510390E-05  1.70811089669239049E-05
  1.72959628683246530E-05  1.75135192991124935E-05  1.77338122529223464E-05
  1.79568761509764419E-05  1.81827458474626583E-05  1.84114566349806421E-05
  1.86430442500562399E-05  1.88775448787254783E-05  1.91149951621886850E-05
  1.93554322025357203E-05  1.95988935685433514E-05  1.98454173015453297E-05
  2.00950419213764890E-05  2.03478064323915408E-05  2.06037503295595717E-05
  2.08629136046352709E-05  2.11253367524076180E-05  2.13910607770273646E-05
  2.16601271984139748E-05  2.19325780587431855E-05  2.22084559290162729E-05
  2.24878039157117203E-05  2.27706656675207936E-05  2.30570853821676918E-05
  2.33471078133155451E-05  2.36407782775593024E-05  2.39381426615064690E-05
  2.42392474289470240E-05  2.45441396281134850E-05  2.48528668990322533E-05
  2.51654774809675729E-05  2.54820202199588531E-05  2.58025445764530760E-05
  2.61271006330330540E-05  2.64557391022429193E-05  2.67885113345121552E-05
  2.71254693261790573E-05  2.74666657276153693E-05  2.78121538514529846E-05
  2.81619876809141333E-05  2.85162218782464610E-05  2.88749117932639670E-05
  2.92381134719956346E-05  2.96058836654427078E-05  2.99782798384461133E-05
  3.03553601786655893E-05  3.07371836056714455E-05  3.11238097801509679E-05
  3.15152991132305277E-05  3.19117127759148693E-05  3.23131127086453618E-05
  3.27195616309781232E-05  3.31311230513841847E-05  3.35478612771728272E-05
  3.39698414245396421E-05  3.43971294287412531E-05  3.48297920543976091E-05
  3.52678969059242248E-05  3.57115124380954943E-05  3.61607079667408137E-05
  3.66155536795755029E-05  3.70761206471675447E-05  3.75424808340426607E-05
  3.80147071099288706E-05  3.84928732611424919E-05  3.89770540021175594E-05
  3.94673249870798972E-05  3.99637628218683518E-05  4.04664450759046341E-05
  4.09754502943136161E-05  4.14908580101963230E-05  4.20127487570569230E-05
  4.25412040813864182E-05  4.30763065554043783E-05  4.36181397899610142E-05
  4.41667884476016649E-05  4.47223382557952775E-05  4.52848760203296700E-05
  4.58544896388750301E-05  4.64312681147181067E-05  4.70153015706692982E-05
  4.76066812631442842E-05  4.82054995964231812E-05  4.88118501370888631E-05
  4.94258276286469123E-05  5.00475280063296008E-05  5.06770484120857648E-05
  5.13144872097595804E-05  5.19599440004600514E-05  5.26135196381238775E-05
  5.32753162452742447E-05  5.39454372289774017E-05  5.46239872970004497E-05
  5.53110724741720015E-05  5.60068001189488441E-05  5.67112789401910539E-05
  5.74246190141476569E-05  5.81469318016565202E-05  5.88783301655602302E-05
  5.96189283883411631E-05  6.03688421899784705E-05  6.11281887460293327E-05
  6.18970867059380231E-05  6.26756562115751150E-05  6.34640189160098320E-05
  6.42622980025187821E-05  6.50706182038332840E-05  6.58891058216293240E-05
  6.67178887462624345E-05  6.75570964767506916E-05  6.84068601410094655E-05
  6.92673125163401169E-05  7.01385880501768970E-05  7.10208228810945709E-05
  7.19141548600803421E-05  7.28187235720735614E-05  7.37346703577757413E-05
  7.46621383357357001E-05  7.56012724247118954E-05  7.65522193663163665E-05
  7.75151277479436176E-05  7.84901480259872221E-05  7.94774325493493368E-05
  8.04771355832453777E-05  8.14894133333082322E-05  8.25144239699959818E-05
  8.35523276533059651E-05  8.46032865578002916E-05  8.56674648979460047E-05
  8.67450289537737560E-05  8.78361470968597348E-05  8.89409898166336439E-05
  9.00597297470182246E-05  9.11925416934037324E-05  9.23396026599614431E-05
  9.35010918773012160E-05  9.46771908304762600E-05  9.58680832873408075E-05
  9.70739553272641518E-05  9.82949953702057916E-05  9.95313942061568189E-05
  1.00783345024950749E-04  1.02051043446450148E-04  1.03334687551112503E-04
  1.04634477910940695E-04  1.05950617620823069E-04  1.07283312330266897E-04
  1.08632770275531916E-04  1.09999202312167577E-04  1.11382821947959536E-04
  1.12783845376291072E-04  1.14202491509923164E-04  1.15638982015200460E-04
  1.17093541346686986E-04  1.18566396782237467E-04  1.20057778458510604E-04
  1.21567919406927107E-04  1.23097055590082902E-04  1.24645425938617571E-04
  1.26213272388548097E-04  1.27800839919072487E-04  1.29408376590846796E-04
  1.31036133584746953E-04  1.32684365241114797E-04  1.34353329099499909E-04
  1.36043285938901027E-04  1.37754499818512041E-04  1.39487238118983557E-04
  1.41241771584200163E-04  1.43018374363585262E-04  1.44817324054938068E-04
  1.46638901747807353E-04  1.48483392067414024E-04  1.50351083219123010E-04
  1.52242267033476545E-04  1.54157239011793628E-04  1.56096298372341365E-04
  1.58059748097090269E-04  1.60047894979054430E-04  1.62061049670228887E-04
  1.64099526730130394E-04  1.66163644674946227E-04  1.68253726027305296E-04
  1.70370097366670943E-04  1.72513089380370652E-04  1.74683036915266926E-04
  1.76880279030076335E-04  1.79105159048350079E-04  1.81358024612117419E-04
  1.83639227736205959E-04  1.85949124863245562E-04  1.88288076919361123E-04
  1.90656449370570579E-04  1.93054612279887746E-04  1.95482940365146126E-04
  1.97941813057550059E-04  2.00431614560959623E-04  2.02952733911925784E-04
  2.05505565040476246E-04  2.08090506831668399E-04  2.10707963187916822E-04
  2.13358343092101657E-04  2.16042060671475740E-04  2.18759535262370733E-04
  2.21511191475719991E-04  2.24297459263405772E-04  2.27118773985437756E-04
  2.29975576477981934E-04  2.32868313122239706E-04  2.35797435914196930E-04
  2.38763402535249752E-04  2.41766676423716195E-04  2.44807726847252188E-04
  2.47887028976173261E-04  2.51005063957701711E-04  2.54162318991147729E-04
  2.57359287404033000E-04  2.60596468729176820E-04  2.63874368782747275E-04
  2.67193499743296375E-04  2.70554380231790225E-04  2.73957535392641916E-04
  2.77403496975769958E-04  2.80892803419682271E-04  2.84425999935609454E-04
  2.88003638592696355E-04  2.91626278404260707E-04  2.95294485415144314E-04
  2.99008832790155325E-04  3.02769900903627728E-04  3.06578277430106995E-04
  3.10434557436172528E-04  3.14339343473421756E-04  3.18293245672617107E-04
  3.22296881839021258E-04  3.26350877548931028E-04  3.30455866247423625E-04
  3.34612489347335250E-04  3.38821396329481875E-04  3.43083244844142243E-04
  3.47398700813817958E-04  3.51768438537283768E-04  3.56193140794949683E-04
  3.60673498955545332E-04  3.65210213084148669E-04  3.69803992051572438E-04
  3.74455553645126156E-04  3.79165624680772922E-04  3.83934941116694450E-04
  3.88764248168286966E-04  3.93654300424602956E-04  3.98605861966256031E-04
  4.03619706484811542E-04  4.08696617403675878E-04  4.13837388000509070E-04
  4.19042821531176262E-04  4.24313731355256739E-04  4.29650941063134653E-04
  4.35055284604685306E-04  4.40527606419582158E-04  4.46068761569242604E-04
  4.51679615870431933E-04  4.57361046030550615E-04  4.63113939784619831E-04
  4.68939196033992835E-04  4.74837724986810529E-04  4.80810448300222058E-04
  4.86858299224397165E-04  4.92982222748347102E-04  4.99183175747581142E-04
  5.05462127133622240E-04  5.11820058005398298E-04  5.18257961802544016E-04
  5.24776844460625252E-04  5.31377724568320143E-04  5.38061633526575435E-04
  5.44829615709763811E-04  5.51682728628871710E-04  5.58622043096734995E-04
  5.65648643395357258E-04  5.72763627445331482E-04  5.79968106977390421E-04
  5.87263207706119100E-04  5.94650069505848079E-04  6.02129846588762060E-04
  6.09703707685248578E-04  6.17372836226512444E-04  6.25138430529491741E-04
  6.33001703984095308E-04  6.40963885242798047E-04  6.49026218412621352E-04
  6.57189963249525579E-04  6.65456395355251175E-04  6.73826806376632550E-04
  6.82302504207421231E-04  6.90884813192647884E-04  6.99575074335551626E-04
  7.08374645507117272E-04  7.17284901658242643E-04  7.26307235034579402E-04
  7.35443055394074106E-04  7.44693790227244365E-04  7.54060884980229155E-04
  7.63545803280641028E-04  7.73150027166261112E-04  7.82875057316612219E-04
  7.92722413287440340E-04  8.02693633748151336E-04  8.12790276722228332E-04
  8.23013919830677490E-04  8.33366160538535363E-04  8.43848616404473595E-04
  8.54462925333548777E-04  8.65210745833125665E-04  8.76093757272023940E-04
  8.87113660142921693E-04  8.98272176328064435E-04  9.09571049368307371E-04
  9.21012044735550683E-04  9.32596950108597646E-04  9.44327575652481317E-04
  9.56205754301310985E-04  9.68233342044666013E-04  9.80412218217601491E-04
  9.92744285794297564E-04  1.00523147168540198E-03  1.01787572703911761E-03
  1.03067902754606726E-03  1.04364337374800403E-03  1.05677079135039760E-03
  1.07006333153895558E-03  1.08352307130012821E-03  1.09715211374563650E-03
  1.11095258844109090E-03  1.12492665173873963E-03  1.13907648711440257E-03
  1.15340430550864748E-03  1.16791234567224724E-03  1.18260287451599439E-03
  1.19747818746490891E-03  1.21254060881690207E-03  1.22779249210595680E-03
  1.24323622046986675E-03  1.25887420702260858E-03  1.27470889523139709E-03
  1.29074275929848010E-03  1.30697830454774085E-03  1.32341806781615550E-03
  1.34006461785018114E-03  1.35692055570712849E-03  1.37398851516158031E-03
  1.39127116311692873E-03  1.40877120002207731E-03  1.42649136029339668E-03
  1.44443441274198108E-03  1.46260316100627953E-03  1.48100044399017612E-03
  1.49962913630656471E-03  1.51849214872652066E-03  1.53759242863411101E-03
  1.55693296048693046E-03  1.57651676628243207E-03  1.59634690603011335E-03
  1.61642647822965511E-03  1.63675862035506559E-03  1.65734650934491593E-03
  1.67819336209875086E-03  1.69930243597972452E-03  1.72067702932357774E-03
  1.74232048195400741E-03  1.76423617570451948E-03  1.78642753494685303E-03
  1.80889802712603750E-03  1.83165116330219176E-03  1.85469049869913536E-03
  1.87801963325989773E-03  1.90164221220921574E-03  1.92556192662311472E-03
  1.94978251400563444E-03  1.97430775887283069E-03  1.99914149334411151E-03
  2.02428759774101038E-03  2.04975000119350312E-03  2.07553268225393146E-03
  2.10163966951866597E-03  2.12807504225758165E-03  2.15484293105145048E-03
  2.18194751843735994E-03  2.20939303956223200E-03  2.23718378284458105E-03
  2.26532409064458470E-03  2.29381835994258831E-03  2.32267104302614352E-03
  2.35188664818568273E-03  2.38146974041895205E-03  2.41142494214429933E-03
  2.44175693392293704E-03  2.47247045519029523E-03  2.50357030499655676E-03
  2.53506134275652750E-03  2.56694848900892655E-03  2.59923672618522826E-03
  2.63193109938818660E-03  2.66503671718012992E-03  2.69855875238119228E-03
  2.73250244287757439E-03  2.76687309243997320E-03  2.80167607155231476E-03
  2.83691681825089075E-03  2.87260083897407110E-03  2.90873370942269262E-03
  2.94532107543127352E-03  2.98236865385019491E-03  3.01988223343895761E-03
  3.05786767577069258E-03  3.09633091614804718E-03  3.13527796453058095E-03
  3.17471490647384816E-03  3.21464790408025960E-03  3.25508319696193567E-03
  3.29602710321565519E-03  3.33748602041006879E-03  3.37946642658534194E-03
  3.42197488126534709E-03  3.46501802648261194E-03  3.50860258781614904E-03
  3.55273537544233565E-03  3.59742328519903560E-03  3.64267329966306208E-03
  3.68849248924123718E-03  3.73488801327515225E-03  3.78186712115982735E-03
  3.82943715347645571E-03  3.87760554313936433E-03  3.92637981655743866E-03
  3.97576759481013241E-03  4.02577659483827326E-03  4.07641463064986782E-03
  4.12768961454103040E-03  4.17960955833231521E-03  4.23218257462057174E-03
  4.28541687804655062E-03  4.33932078657847577E-03  4.39390272281172268E-03
  4.44917121528487156E-03  4.50513489981231759E-03  4.56180252083362471E-03
  4.61918293277987536E-03  4.67728510145717317E-03  4.73611810544758392E-03
  4.79569113752767884E-03  4.85601350610491683E-03  4.91709463667212507E-03
  4.97894407328021947E-03  5.04157148002950389E-03  5.10498664257970011E-03
  5.16919946967897125E-03  5.23421999471220152E-03  5.30005837726871005E-03
  5.36672490472971803E-03  5.43422999387577817E-03  5.50258419251440246E-03
  5.57179818112820639E-03  5.64188277454372340E-03  5.71284892362126234E-03
  5.78470771696599877E-03  5.85747038266058555E-03  5.93114829001958367E-03
  6.00575295136591275E-03  6.08129602382969162E-03  6.15778931116968582E-03
  6.23524476561766652E-03  6.31367448974598337E-03  6.39309073835859446E-03
  6.47350592040591734E-03  6.55493260092375463E-03  6.63738350299659333E-03
  6.72087150974564305E-03  6.80540966634180997E-03  6.89101118204405675E-03
  6.97768943226336879E-03  7.06545796065268482E-03  7.15433048122314508E-03
  7.24432088048689547E-03  7.33544321962690659E-03  7.42771173669406082E-03
  7.52114084883186238E-03  7.61574515452918127E-03  7.71153943590124902E-03
  7.80853866099942475E-03  7.90675798614997802E-03  8.00621275832228210E-03
  8.10691851752684892E-03  8.20889099924343446E-03  8.31214613687976910E-03
  8.41670006426118410E-03  8.52256911815154131E-03  8.62976984080592036E-03
  8.73831898255532716E-03  8.84823350442400652E-03  8.95953058077962258E-03
  9.07222760201678406E-03  9.18634217727436024E-03  9.30189213718689116E-03
  9.41889553667070618E-03  9.53737065774501978E-03  9.65733601238852497E-03
  9.77881034543197879E-03  9.90181263748705215E-03  1.00263621079121259E-02
  1.01524782178153521E-02  1.02801806730954820E-02  1.04094894275209814E-02
  1.05404246858478018E-02  1.06730069069764476E-02  1.08072568071487084E-02
  1.09431953631846119E-02  1.10808438157601261E-02  1.12202236727260030E-02
  1.13613567124684692E-02  1.15042649873121159E-02  1.16489708269656312E-02
  1.17954968420108837E-02  1.19438659274358240E-02  1.20941012662119131E-02
  1.22462263329164850E-02  1.24002648974007087E-02  1.25562410285036952E-02
  1.27141790978132548E-02  1.28741037834740491E-02  1.30360400740435773E-02
  1.32000132723966920E-02  1.33660489996792666E-02  1.35341731993114788E-02
  1.37044121410415734E-02  1.38767924250505510E-02  1.40513409861084803E-02
  1.42280850977831771E-02  1.44070523767016699E-02  1.45882707868653944E-02
  1.47717686440196356E-02  1.49575746200778896E-02  1.51457177476019625E-02
  1.53362274243383032E-02  1.55291334178114943E-02  1.57244658699754840E-02
  1.59222553019233194E-02  1.61225326186561733E-02  1.63253291139122403E-02
  1.65306764750564952E-02  1.67386067880318998E-02  1.69491525423728813E-02
  1.71623466362819423E-02  1.73782223817699893E-02  1.75968135098614510E-02
  1.78181541758648254E-02  1.80422789647094808E-02  1.82692228963496905E-02
  1.84990214312364745E-02  1.87317104758584450E-02  1.89673263883522250E-02
  1.92059059841834974E-02  1.94474865418995321E-02  1.96921058089539573E-02
  1.99398020076049336E-02  2.01906138408874392E-02  2.04445804986606895E-02
  2.07017416637316973E-02  2.09621375180556804E-02  2.12258087490146616E-02
  2.14927965557749207E-02  2.17631426557244288E-02  2.20368892909913773E-02
  2.23140792350444393E-02  2.25947557993763301E-02  2.28789628402712546E-02
  2.31667447656575647E-02  2.34581465420466394E-02  2.37532137015588792E-02
  2.40519923490382717E-02  2.43545291692563622E-02  2.46608714342067999E-02
  2.49710670104917945E-02  2.52851643668011994E-02  2.56032125814859880E-02
  2.59252613502267762E-02  2.62513609937988675E-02  2.65815624659350713E-02
  2.69159173612871852E-02  2.72544779234878617E-02  2.75972970533137456E-02
  2.79444283169513266E-02  2.82959259543668316E-02  2.86518448877812193E-02
  2.90122407302519543E-02  2.93771697943626502E-02  2.97466891010220100E-02
  3.01208563883735361E-02  3.04997301208171055E-02  3.08833694981442385E-02
  3.12718344647881508E-02  3.16651857191902059E-02  3.20634847232842413E-02
  3.24667937120999422E-02  3.28751757034873721E-02  3.32886945079635330E-02
  3.37074147386829115E-02  3.41314018215335066E-02  3.45607220053595898E-02
  3.49954423723133484E-02  3.54356308483365565E-02  3.58813562137741474E-02
  3.63326881141213462E-02  3.67896970709058121E-02  3.72524544927068310E-02
  3.77210326863130357E-02  3.81955048680204870E-02  3.86759451750729524E-02
  3.91624286772458419E-02  3.96550313885761369E-02  4.01538302792396884E-02
  4.06589032875779369E-02  4.11703293322760802E-02  4.16881883246940782E-02
  4.22125611813530879E-02  4.27435298365788086E-02  4.32811772553038446E-02
  4.38255874460313014E-02  4.43768454739610491E-02  4.49350374742814862E-02
  4.55002506656283431E-02  4.60725733637126281E-02  4.66520949951204633E-02
  4.72389061112856168E-02  4.78330984026389752E-02  4.84347647129350078E-02
  4.90439990537586620E-02  4.96608966192153348E-02  5.02855538008045513E-02
  5.09180682024818962E-02  5.15585386559095846E-02  5.22070652358988321E-02
  5.28637492760473809E-02  5.35286933845723553E-02  5.42020014603436379E-02
  5.48837787091180224E-02  5.55741316599775159E-02  5.62731681819754470E-02
  5.69809975009903449E-02  5.76977302167935233E-02  5.84234783203301175E-02
  5.91583552112176503E-02  5.99024757154656487E-02  6.06559561034166195E-02
  6.14189141079142520E-02  6.21914689426990991E-02  6.29737413210356561E-02
  6.37658534745748212E-02  6.45679291724519100E-02  6.53800937406266575E-02
  6.62024740814653317E-02  6.70351986935691091E-02  6.78783976918530402E-02
  6.87322028278758712E-02  6.95967475104273120E-02  7.04721668263730561E-02
  7.13585975617620355E-02  7.22561782232003791E-02  7.31650490594922820E-02
  7.40853520835551976E-02  7.50172310946091159E-02  7.59608317006451594E-02
  7.69163013411780921E-02  7.78837893102828777E-02  7.88634467799231992E-02
  7.98554268235719400E-02  8.08598844401288569E-02  8.18769765781404008E-02
  8.29068621603221423E-02  8.39497021083917550E-02  8.50056593682129297E-02
  8.60748989352556199E-02  8.71575878803778209E-02  8.82538953759296613E-02
  8.93639927221879654E-02  9.04880533741216908E-02  9.16262529684943455E-02
  9.27787693513085626E-02  9.39457826055936224E-02  9.51274750795449986E-02
  9.63240314150160676E-02  9.75356385763683220E-02  9.87624858796860988E-02
  1.00004765022356237E-01  1.01262670113022396E-01  1.02536397701914403E-01
  1.03826146811559092E-01  1.05132118967879176E-01  1.06454518231680784E-01
  1.07793551230539478E-01  1.09149427191085835E-01  1.10522357971696822E-01
  1.11912558095600578E-01  1.13320244784394439E-01  1.14745637991987684E-01
  1.16188960438969202E-01  1.17650437647407388E-01  1.19130297976089844E-01
  1.20628772656203337E-01  1.22146095827465509E-01  1.23682504574709098E-01
  1.25238238964926279E-01  1.26813542084781128E-01  1.28408660078590642E-01
  1.30023842186786920E-01  1.31659340784860635E-01  1.33315411422794766E-01
  1.34992312864996272E-01  1.36690307130726690E-01  1.38409659535044860E-01
  1.40150638730262261E-01  1.41913516747919743E-01  1.43698569041294605E-01
  1.45506074528438917E-01  1.47336315635762743E-01  1.49189578342162926E-01
  1.51066152223707423E-01  1.52966330498883585E-01  1.54890410074412344E-01
  1.56838691591642182E-01  1.58811479473524336E-01  1.60809081972178414E-01
  1.62831811217059530E-01  1.64879983263726909E-01  1.66953918143230184E-01
  1.69053939912114010E-01  1.71180376703051751E-01  1.73333560776118806E-01
  1.75513828570706687E-01  1.77721520758094415E-01  1.79956982294678158E-01
  1.82220562475870429E-01  1.84512614990680474E-01  1.86833497976976348E-01
  1.89183574077446848E-01  1.91563210496264236E-01  1.93972779056459682E-01
  1.96412656258023760E-01  1.98883223336732445E-01  2.01384866323718575E-01
  2.03917976105788795E-01  2.06482948486499535E-01  2.09080184248004508E-01
  2.11710089213674790E-01  2.14373074311512229E-01  2.17069555638356643E-01
  2.19799954524900559E-01  2.22564697601525918E-01  2.25364216864962524E-01
  2.28198949745791690E-01  2.31069339176792621E-01  2.33975833662154159E-01
  2.36918887347553342E-01  2.39898960091115387E-01  2.42916517535270327E-01
  2.45972031179507195E-01  2.49065978454049847E-01  2.52198842794455091E-01
  2.55371113717149045E-01  2.58583286895918307E-01  2.61835864239356397E-01
  2.65129353969291048E-01  2.68464270700193741E-01  2.71841135519587718E-01
  2.75260476069472182E-01  2.78722826628763742E-01  2.82228728196782130E-01
  2.85778728577780472E-01  2.89373382466540041E-01  2.93013251535045149E-01
  2.96698904520242224E-01  3.00430917312909218E-01  3.04209873047638246E-01
  3.08036362193950308E-01  3.11910982648560542E-01  3.15834339828796884E-01
  3.19807046767201397E-01  3.23829724207316427E-01  3.27903000700674851E-01
  3.32027512705017291E-01  3.36203904683734456E-01  3.40432829206570642E-01
  3.44714947051586895E-01  3.49050927308407366E-01  3.53441447482770066E-01
  3.57887193602383524E-01  3.62388860324124484E-01  3.66947151042577524E-01
  3.71562777999940197E-01  3.76236462397316340E-01  3.80968934507400436E-01
  3.85760933788588611E-01  3.90613209000518657E-01  3.95526518321063059E-01
  4.00501629464800835E-01  4.05539319802968645E-01  4.10640376484931846E-01
  4.15805596561175828E-01  4.21035787107844894E-01  4.26331765352854164E-01
  4.31694358803577871E-01  4.37124405376153602E-01  4.42622753526406676E-01
  4.48190262382420379E-01  4.53827801878782300E-01  4.59536252892506936E-01
  4.65316507380679645E-01  4.71169468519825274E-01  4.77096050847028053E-01
  4.83097180402835891E-01  4.89173794875949752E-01  4.95326843749744783E-01
  5.01557288450626748E-01  5.07866102498254701E-01  5.14254271657660356E-01
  5.20722794093270047E-01  5.27272680524875637E-01  5.33904954385558739E-01
  5.40620651981601696E-01  5.47420822654419048E-01  5.54306528944511379E-01
  5.61278846757496841E-01  5.68338865532219795E-01  5.75487688410975418E-01
  5.82726432411885265E-01  5.90056228603424548E-01  5.97478222281161653E-01
  6.04993573146710317E-01  6.12603455488931137E-01  6.20309058367424337E-01
  6.28111585798315164E-01  6.36012256942389831E-01  6.44012306295589920E-01
  6.52112983881900643E-01  6.60315555448678371E-01  6.68621302664416217E-01
  6.77031523319015838E-01  6.85547531526566667E-01  6.94170657930674562E-01
  7.02902249912386701E-01  7.11743671800712074E-01  7.20696305085809841E-01
  7.29761548634846768E-01  7.38940818910567954E-01  7.48235550192631993E-01
  7.57647194801709500E-01  7.67177223326419688E-01  7.76827124853110451E-01
  7.86598407198525029E-01  7.96492597145412651E-01  8.06511240681079711E-01
  8.16655903238962977E-01  8.26928169943228153E-01  8.37329645856443872E-01
  8.47861956230386626E-01  8.58526746759977422E-01  8.69325683840435626E-01
  8.80260454827652361E-01  8.91332768301838163E-01  9.02544354334503307E-01
  9.13896964758772357E-01  9.25392373443122640E-01  9.37032376568550651E-01
  9.48818792909222997E-01  9.60753464116675726E-01  9.72838255007563379E-01
  9.85075053855050564E-01  9.97465772683855278E-01  1.01001234756899994E+00
  1.02271673893834003E+00  1.03558093187887068E+00  1.04860693644691327E+00
  1.06179678798218502E+00  1.07515254742581945E+00  1.08867630164240592E+00
  1.10237016374605101E+00  1.11623627343057108E+00  1.13027679730381703E+00
  1.14449392922620596E+00  1.15888989065352921E+00  1.17346693098404486E+00
  1.18822732790996377E+00  1.20317338777333793E+00  1.21830744592642493E+00
  1.23363186709660577E+00  1.24914904575586183E+00  1.26486140649493062E+00
  1.28077140440214721E+00  1.29688152544704893E+00  1.31319428686883000E+00
  1.32971223756964663E+00  1.34643795851290404E+00  1.36337406312653076E+00
  1.38052319771132437E+00  1.39788804185445970E+00  1.41547130884815719E+00
  1.43327574611366115E+00  1.45130413563051963E+00  1.46955929437126942E+00
  1.48804407474160882E+00  1.50676136502607338E+00  1.52571408983935264E+00
  1.54490521058326169E+00  1.56433772590945575E+00  1.58401467218799574E+00
  1.60393912398176530E+00  1.62411419452689620E+00  1.64454303621921083E+00
  1.66522884110678082E+00  1.68617484138871099E+00  1.70738430992015466E+00
  1.72886056072372352E+00  1.75060694950730267E+00  1.77262687418837661E+00
  1.79492377542498338E+00  1.81750113715329764E+00  1.84036248713202699E+00
  1.86351139749362060E+00  1.88695148530241275E+00  1.91068641311981913E+00
  1.93471988957659380E+00  1.95905566995233316E+00  1.98369755676223569E+00
  2.00864940035124295E+00  2.03391509949568761E+00  2.05949860201245727E+00
  2.08540390537587372E+00  2.11163505734229595E+00  2.13819615658257911E+00
  2.16509135332252578E+00  2.19232484999133836E+00  2.21990090187828137E+00
  2.24782381779757046E+00  2.27609796076161919E+00  2.30472774866279861E+00
  2.33371765496370731E+00  2.36307220939618912E+00  2.39279599866910164E+00
  2.42289366718498345E+00  2.45336991776578195E+00  2.48422951238764700E+00
  2.51547727292502721E+00  2.54711808190408462E+00  2.57915688326558667E+00
  2.61159868313743937E+00  2.64444855061686646E+00  2.67771161856249940E+00
  2.71139308439638427E+00  2.74549821091607349E+00  2.78003232711698267E+00
  2.81500082902501880E+00  2.85040918053975334E+00  2.88626291428815485E+00
  2.92256763248905660E+00  2.95932900782855013E+00  2.99655278434631267E+00
  3.03424477833316386E+00  3.07241087923985345E+00  3.11105705059728788E+00
  3.15018933094837816E+00  3.18981383479153369E+00  3.22993675353610143E+00
  3.27056435646977262E+00  3.31170299173815152E+00  3.35335908733670740E+00
  3.39553915211511592E+00  3.43824977679432031E+00  3.48149763499632803E+00
  3.52528948428695976E+00  3.56963216723177545E+00  3.61453261246518753E+00
  3.65999783577312066E+00  3.70603494118922328E+00  3.75265112210486729E+00
  3.79985366239317424E+00  3.84764993754708629E+00  3.89604741583184477E+00
  3.94505365945190301E+00  3.99467632573251885E+00  4.04492316831626919E+00
  4.09580203837452128E+00  4.14732088583424385E+00  4.19948776062017526E+00
  4.25231081391262045E+00  4.30579829942114056E+00  4.35995857467415160E+00
  4.41480010232486109E+00  4.47033145147354638E+00  4.52656129900647741E+00
  4.58349843095174592E+00  4.64115174385204288E+00  4.69953024615481318E+00
  4.75864305961982215E+00  4.81849942074442250E+00  4.87910868220683636E+00
  4.94048031432746093E+00  5.00262390654868305E+00  5.06554916893322993E+00
  5.12926593368135375E+00  5.19378415666719651E+00  5.25911391899434566E+00
  5.32526542857108787E+00  5.39224902170539089E+00  5.46007516471994148E+00
  5.52875445558759893E+00  5.59829762558726962E+00  5.66871554098076302E+00
  5.74001920471063620E+00  5.81221975811939640E+00  5.88532848269042486E+00
  5.95935680181065752E+00  6.03431628255557762E+00  6.11021863749657168E+00
  6.18707572653099813E+00  6.26489955873541060E+00  6.34370229424190146E+00
  6.42349624613822989E+00  6.50429388239173267E+00  6.58610782779743698E+00
  6.66895086595078723E+00  6.75283594124501629E+00  6.83777616089381546E+00
  6.92378479697933091E+00  7.01087528852591202E+00  7.09906124360007240E+00
  7.18835644143668784E+00  7.27877483459210062E+00  7.37033055112421387E+00
  7.46303789679998175E+00  7.55691135733080621E+00  7.65196560063585629E+00
  7.74821547913404984E+00  7.84567603206473851E+00  7.94436248783757648E+00
  8.04429026641208367E+00  8.14547498170693807E+00  8.24793244403978321E+00
  8.35167866259757297E+00  8.45672984793799998E+00  8.56310241452253429E+00
  8.67081298328108829E+00  8.77987838420918543E+00  8.89031565899763443E+00
  9.00214206369527403E+00  9.11537507140537961E+00  9.23003237501575313E+00
  9.34613188996336852E+00  9.46369175703366139E+00  9.58273034519500300E+00
  9.70326625446901403E+00  9.82531831883671991E+00  9.94890560918150513E+00
  1.00740474362689536E+01  1.02007633537641063E+01  1.03290731612869173E+01
  1.04589969075058242E+01  1.05905548932705234E+01  1.07237676747839679E+01
  1.08586560668142518E+01  1.09952411459471016E+01  1.11335442538789788E+01
  1.12735870007518955E+01  1.14153912685299908E+01  1.15589792144185672E+01
  1.17043732743263451E+01  1.18515961663709462E+01  1.20006708944288025E+01
  1.21516207517294887E+01  1.23044693244952761E+01  1.24592404956266769E+01
  1.26159584484340179E+01  1.27746476704162930E+01  1.29353329570873168E+01
  1.30980394158499998E+01  1.32627924699196029E+01  1.34296178622959665E+01
  1.35985416597860844E+01  1.37695902570770166E+01  1.39427903808600409E+01
  1.41181690940069284E+01  1.42957537997983639E+01  1.44755722462059584E+01
  1.46576525302278267E+01  1.48420231022787448E+01
                               </PP_R> 
 <PP_RAB type="real" size="  1103" columns="3">
  1.93195331685278864E-07  1.95625429802758959E-07  1.98086094791648786E-07