<UPF version="2.0.1">
<PP_INFO>
Generated in analytical, separable form
Author: Goedecker/Hartwigsen/Hutter/Teter
Generation date: Phys.Rev.B58, 3641 (1998); B54, 1703 (1996)
Pseudopotential type: NC
Element: Cl
Functional: SLA-PZ-NOGX-NOGC

Suggested minimum cutoff for wavefunctions:   0. Ry
Suggested minimum cutoff for charge density:   0. Ry
The Pseudo was generated with a Scalar-Relativistic Calculation
Local Potential: unknown format, L component and cutoff radius: -3   0.0000

Valence configuration:
nl pn  l   occ       Rcut    Rcut US       E pseu

Generation configuration: not available.
Converted from CPMD format using cpmd2upf v.5.0.1 - PG 10Jul2012
Contains atomic orbitals generated by ld1.x - use with care
</PP_INFO>
<!--                               -->
<!-- END OF HUMAN READABLE SECTION -->
<!--                               -->
<PP_HEADER generated="Generated in analytical, separable form"
author="Goedecker/Hartwigsen/Hutter/Teter"
date="Phys.Rev.B58, 3641 (1998); B54, 1703 (1996)"
comment="Contains atomic orbitals generated by ld1.x - use with care"
element="Cl"
pseudo_type="NC"
relativistic="scalar"
is_ultrasoft="F"
is_paw="F"
is_coulomb="F"
has_so="F"
has_wfc="F"
has_gipaw="F"
paw_as_gipaw="F"
core_correction="F"
functional="SLA-PZ-NOGX-NOGC"
z_valence="7.000000000000000E+000"
total_psenergy="0.000000000000000E+000"
wfc_cutoff="0.000000000000000E+000"
rho_cutoff="0.000000000000000E+000"
l_max="1"
l_max_rho="0"
l_local="-3"
mesh_size="1157"
number_of_wfc=" 3"
number_of_proj="3"/>
<PP_MESH dx="1.250000000000000E-002" mesh="1157" xmin="-7.000000000000000E+000" rmax="1.011684203162308E+002"
zmesh="1.700000000000000E+001">
<PP_R type="real" size="1157" columns="4">
5.364011562085390E-005  5.431482521582484E-005  5.499802161274013E-005  5.568981156242671E-005
5.639030315847176E-005  5.709960585411228E-005  5.781783047933757E-005  5.854508925820655E-005
5.928149582638297E-005  6.002716524889145E-005  6.078221403809630E-005  6.154676017190697E-005
6.232092311221236E-005  6.310482382354687E-005  6.389858479199164E-005  6.470233004431283E-005
6.551618516734137E-005  6.634027732759602E-005  6.717473529115338E-005  6.801968944376811E-005
6.887527181124556E-005  6.974161608007134E-005  7.061885761830005E-005  7.150713349670675E-005
7.240658251020477E-005  7.331734519953232E-005  7.423956387321261E-005  7.517338262978968E-005
7.611894738034401E-005  7.707640587129177E-005  7.804590770747009E-005  7.902760437551334E-005
8.002164926752317E-005  8.102819770503630E-005  8.204740696329405E-005  8.307943629581657E-005
8.412444695928673E-005  8.518260223874680E-005  8.625406747311194E-005  8.733901008100511E-005
8.843759958691603E-005  8.955000764769009E-005  9.067640807935001E-005  9.181697688425483E-005
9.297189227860101E-005  9.414133472026849E-005  9.532548693701804E-005  9.652453395504271E-005
9.773866312787846E-005  9.896806416567889E-005  1.002129291648573E-004  1.014734526381025E-004
1.027498315447717E-004  1.040422653216659E-004  1.053509559141923E-004  1.066761078079185E-004
1.080179280605239E-004  1.093766263341530E-004  1.107524149281751E-004  1.121455088123574E-004
1.135561256604535E-004  1.149844858842157E-004  1.164308126678351E-004  1.178953320028141E-004
1.193782727232785E-004  1.208798665417329E-004  1.224003480852664E-004  1.239399549322138E-004
1.254989276492770E-004  1.270775098291150E-004  1.286759481284050E-004  1.302944923063834E-004
1.319333952638708E-004  1.335929130827886E-004  1.352733050661727E-004  1.369748337786890E-004
1.386977650876608E-004  1.404423682046102E-004  1.422089157273237E-004  1.439976836824461E-004
1.458089515686093E-004  1.476430024001058E-004  1.495001227511093E-004  1.513806028004529E-004
1.532847363769705E-004  1.552128210054072E-004  1.571651579529089E-004  1.591420522760957E-004
1.611438128687276E-004  1.631707525099699E-004  1.652231879132654E-004  1.673014397758216E-004
1.694058328287202E-004  1.715366958876569E-004  1.736943619043204E-004  1.758791680184153E-004
1.780914556103421E-004  1.803315703545378E-004  1.825998622734888E-004  1.848966857924224E-004
1.872223997946863E-004  1.895773676778251E-004  1.919619574103617E-004  1.943765415892931E-004
1.968214974983101E-004  1.992972071667477E-004  2.018040574292785E-004  2.043424399863561E-004
2.069127514654193E-004  2.095153934828665E-004  2.121507727068077E-004  2.148193009206084E-004
2.175213950872313E-004  2.202574774143871E-004  2.230279754205063E-004  2.258333220015390E-004
2.286739554985959E-004  2.315503197664402E-004  2.344628642428406E-004  2.374120440187976E-004
2.403983199096510E-004  2.434221585270845E-004  2.464840323520341E-004  2.495844198085141E-004
2.527238053383729E-004  2.559026794769864E-004  2.591215389299063E-004  2.623808866504707E-004
2.656812319183921E-004  2.690230904193337E-004  2.724069843254850E-004  2.758334423771536E-004
2.793029999653811E-004  2.828161992155992E-004  2.863735890723390E-004  2.899757253850030E-004
2.936231709947186E-004  2.973164958222832E-004  3.010562769572148E-004  3.048430987479250E-004
3.086775528930226E-004  3.125602385337692E-004  3.164917623476953E-004  3.204727386433956E-004
3.245037894565160E-004  3.285855446469471E-004  3.327186419972416E-004  3.369037273122697E-004
3.411414545201260E-004  3.454324857743089E-004  3.497774915571820E-004  3.541771507847388E-004
3.586321509126846E-004  3.631431880438530E-004  3.677109670369742E-004  3.723362016168087E-004
3.770196144856696E-004  3.817619374363463E-004  3.865639114664478E-004  3.914262868941867E-004
3.963498234756157E-004  4.013352905233428E-004  4.063834670267372E-004  4.114951417736477E-004
4.166711134736544E-004  4.219121908828646E-004  4.272191929302877E-004  4.325929488457904E-004
4.380342982896670E-004  4.435440914838397E-004  4.491231893447036E-004  4.547724636176512E-004
4.604927970132808E-004  4.662850833453232E-004  4.721502276703036E-004  4.780891464289536E-004
4.841027675894136E-004  4.901920307922241E-004  4.963578874971489E-004  5.026013011318439E-004
5.089232472423903E-004  5.153247136457311E-004  5.218067005840152E-004  5.283702208808892E-004
5.350163000997543E-004  5.417459767040082E-004  5.485603022193133E-004  5.554603413978948E-004
5.624471723849120E-004  5.695218868869231E-004  5.766855903424604E-004  5.839394020947654E-004
5.912844555666816E-004  5.987218984377570E-004  6.062528928235735E-004  6.138786154573238E-004
6.216002578736856E-004  6.294190265949957E-004  6.373361433197736E-004  6.453528451136170E-004
6.534703846024886E-004  6.616900301684509E-004  6.700130661478457E-004  6.784407930319777E-004
6.869745276703208E-004  6.956156034762717E-004  7.043653706355072E-004  7.132251963169470E-004
7.221964648863786E-004  7.312805781227701E-004  7.404789554372940E-004  7.497930340951217E-004
7.592242694399925E-004  7.687741351216164E-004  7.784441233259377E-004  7.882357450082840E-004
7.981505301294667E-004  8.081900278948319E-004  8.183558069963305E-004  8.286494558576315E-004
8.390725828823091E-004  8.496268167051693E-004  8.603138064467190E-004  8.711352219708471E-004
8.820927541457480E-004  8.931881151081145E-004  9.044230385306725E-004  9.157992798930641E-004
9.273186167561463E-004  9.389828490397425E-004  9.507937993038749E-004  9.627533130335546E-004
9.748632589271326E-004  9.871255291882916E-004  9.995420398217108E-004  1.012114730932434E-003
1.024845567029030E-003  1.037736537330539E-003  1.050789656077296E-003  1.064006962845665E-003
1.077390522866716E-003  1.090942427348934E-003  1.104664793804965E-003  1.118559766382486E-003
1.132629516199231E-003  1.146876241682235E-003  1.161302168911340E-003  1.175909551967025E-003
1.190700673282611E-003  1.205677844000897E-003  1.220843404335279E-003  1.236199723935414E-003
1.251749202257481E-003  1.267494268939104E-003  1.283437384178987E-003  1.299581039121320E-003
1.315927756245035E-003  1.332480089757939E-003  1.349240625995819E-003  1.366211983826563E-003
1.383396815059359E-003  1.400797804859052E-003  1.418417672165698E-003  1.436259170119414E-003
1.454325086490553E-003  1.472618244115303E-003  1.491141501336761E-003  1.509897752451555E-003
1.528889928162079E-003  1.548120996034430E-003  1.567593960962087E-003  1.587311865635440E-003
1.607277791017210E-003  1.627494856823857E-003  1.647966222013048E-003  1.668695085277241E-003
1.689684685543496E-003  1.710938302479557E-003  1.732459257006311E-003  1.754250911816689E-003
1.776316671901088E-003  1.798659985079417E-003  1.821284342539817E-003  1.844193279384170E-003
1.867390375180468E-003  1.890879254522122E-003  1.914663587594319E-003  1.938747090747492E-003
1.963133527078005E-003  1.987826707016150E-003  2.012830488921531E-003  2.038148779685943E-003
2.063785535343826E-003  2.089744761690410E-003  2.116030514907627E-003  2.142646902197896E-003
2.169598082425883E-003  2.196888266768331E-003  2.224521719372064E-003  2.252502758020274E-003
2.280835754807177E-003  2.309525136821166E-003  2.338575386836548E-003  2.367991044013991E-003
2.397776704609778E-003  2.427937022693973E-003  2.458476710877642E-003  2.489400541049195E-003
2.520713345120011E-003  2.552420015779434E-003  2.584525507259260E-003  2.617034836107854E-003
2.649953081973990E-003  2.683285388400553E-003  2.717036963628242E-003  2.751213081409352E-003
2.785819081831819E-003  2.820860372153616E-003  2.856342427647646E-003  2.892270792457270E-003
2.928651080462585E-003  2.965488976157611E-003  3.002790235538495E-003  3.040560687002907E-003
3.078806232260728E-003  3.117532847256224E-003  3.156746583101773E-003  3.196453567023382E-003
3.236660003318074E-003  3.277372174323317E-003  3.318596441398668E-003  3.360339245919723E-003
3.402607110284617E-003  3.445406638933151E-003  3.488744519378748E-003  3.532627523253408E-003
3.577062507365763E-003  3.622056414772484E-003  3.667616275863145E-003  3.713749209458728E-003
3.760462423923975E-003  3.807763218293680E-003  3.855658983413198E-003  3.904157203093273E-003
3.953265455279398E-003  4.002991413235894E-003  4.053342846744858E-003  4.104327623320215E-003
4.155953709437036E-003  4.208229171776307E-003  4.261162178485380E-003  4.314761000454243E-003
4.369034012607876E-003  4.423989695214849E-003  4.479636635212372E-003  4.535983527548042E-003
4.593039176538422E-003  4.650812497244746E-003  4.709312516865917E-003  4.768548376149014E-003
4.828529330817576E-003  4.889264753017798E-003  4.950764132782965E-003  5.013037079516287E-003
5.076093323492382E-003  5.139942717377670E-003  5.204595237769842E-003  5.270060986756748E-003
5.336350193494856E-003  5.403473215807582E-003  5.471440541803735E-003  5.540262791516276E-003
5.609950718561745E-003  5.680515211820522E-003  5.751967297138238E-003  5.824318139048606E-003
5.897579042517868E-003  5.971761454711240E-003  6.046876966781555E-003  6.122937315680391E-003
6.199954385992019E-003  6.277940211790366E-003  6.356906978519371E-003  6.436867024896999E-003
6.517832844843175E-003  6.599817089431984E-003  6.682832568868457E-003  6.766892254490143E-003
6.852009280793943E-003  6.938196947488387E-003  7.025468721571742E-003  7.113838239436276E-003
7.203319308998938E-003  7.293925911858899E-003  7.385672205482195E-003  7.478572525413858E-003
7.572641387517896E-003  7.667893490245394E-003  7.764343716931193E-003  7.862007138119442E-003
7.960899013918395E-003  8.061034796384852E-003  8.162430131938547E-003  8.265100863806952E-003
8.369063034500804E-003  8.474332888320781E-003  8.580926873895731E-003  8.688861646752756E-003
8.798154071919712E-003  8.908821226560393E-003  9.020880402642852E-003  9.134349109641353E-003
9.249245077272216E-003  9.365586258264138E-003  9.483390831163346E-003  9.602677203174023E-003
9.723464013034503E-003  9.845770133929562E-003  9.969614676439423E-003  1.009501699152581E-002
1.022199667355560E-002  1.035057356336244E-002  1.048076775134697E-002  1.061259958061593E-002
1.074608965016087E-002  1.088125881807672E-002  1.101812820482100E-002  1.115671919651384E-002
1.129705344827966E-002  1.143915288763080E-002  1.158303971789377E-002  1.172873642167854E-002
1.187626576439150E-002  1.202565079779259E-002  1.217691486359722E-002  1.233008159712340E-002
1.248517493098489E-002  1.264221909883063E-002  1.280123863913135E-002  1.296225839901376E-002
1.312530353814293E-002  1.329039953265358E-002  1.345757217913074E-002  1.362684759864052E-002
1.379825224081164E-002  1.397181288796813E-002  1.414755665931425E-002  1.432551101517181E-002
1.450570376127098E-002  1.468816305309492E-002  1.487291740027920E-002  1.505999567106648E-002
1.524942709681715E-002  1.544124127657691E-002  1.563546818170157E-002  1.583213816054023E-002
1.603128194317721E-002  1.623293064623372E-002  1.643711577772985E-002  1.664386924200783E-002
1.685322334471706E-002  1.706521079786208E-002  1.727986472491370E-002  1.749721866598475E-002
1.771730658307072E-002  1.794016286535643E-002  1.816582233458941E-002  1.839432025052082E-002
1.862569231641490E-002  1.885997468462770E-002  1.909720396225587E-002  1.933741721685672E-002
1.958065198223998E-002  1.982694626433262E-002  2.007633854711729E-002  2.032886779864556E-002
2.058457347712679E-002  2.084349553709346E-002  2.110567443564422E-002  2.137115113876538E-002
2.163996712773190E-002  2.191216440558900E-002  2.218778550371512E-002  2.246687348846759E-002
2.274947196791186E-002  2.303562509863524E-002  2.332537759264664E-002  2.361877472436275E-002
2.391586233768231E-002  2.421668685314934E-002  2.452129527520638E-002  2.482973519953915E-002
2.514205482051334E-002  2.545830293870515E-002  2.577852896852645E-002  2.610278294594588E-002
2.643111553630716E-002  2.676357804224551E-002  2.710022241170389E-002  2.744110124604992E-002
2.778626780829498E-002  2.813577603141671E-002  2.848968052678604E-002  2.884803659270038E-002
2.921090022302411E-002  2.957832811593770E-002  2.995037768279702E-002  3.032710705710378E-002
3.070857510358920E-002  3.109484142741163E-002  3.148596638347002E-002  3.188201108583454E-002
3.228303741729568E-002  3.268910803903363E-002  3.310028640040918E-002  3.351663674887782E-002
3.393822414002863E-002  3.436511444774918E-002  3.479737437451855E-002  3.523507146182975E-002
3.567827410074315E-002  3.612705154257282E-002  3.658147390970708E-002  3.704161220656532E-002
3.750753833069258E-002  3.797932508399365E-002  3.845704618410867E-002  3.894077627593143E-002
3.943059094327292E-002  3.992656672067146E-002  4.042878110535131E-002  4.093731256933189E-002
4.145224057168904E-002  4.197364557097076E-002  4.250160903776898E-002  4.303621346744951E-002
4.357754239304223E-002  4.412568039829307E-002  4.468071313088053E-002  4.524272731579830E-002
4.581181076890617E-002  4.638805241065157E-002  4.697154227996337E-002  4.756237154832076E-002
4.816063253399897E-002  4.876641871649414E-002  4.937982475112985E-002  5.000094648384697E-002
5.062988096617990E-002  5.126672647042109E-002  5.191158250497620E-002  5.256454982991270E-002
5.322573047270352E-002  5.389522774416930E-002  5.457314625462079E-002  5.525959193020446E-002
5.595467202945377E-002  5.665849516004836E-002  5.737117129578431E-002  5.809281179375777E-002
5.882352941176471E-002  5.956343832591968E-002  6.031265414849584E-002  6.107129394598974E-002
6.183947625741322E-002  6.261732111281526E-002  6.340495005203717E-002  6.420248614370305E-002
6.501005400444990E-002  6.582777981839891E-002  6.665579135687213E-002  6.749421799835720E-002
6.834319074872255E-002  6.920284226168771E-002  7.007330685955053E-002  7.095472055417533E-002
7.184722106824530E-002  7.275094785678149E-002  7.366604212893324E-002  7.459264687004237E-002
7.553090686398478E-002  7.648096871579360E-002  7.744298087456600E-002  7.841709365665903E-002
7.940345926917670E-002  8.040223183375272E-002  8.141356741063245E-002  8.243762402305728E-002
8.347456168195636E-002  8.452454241094855E-002  8.558773027165889E-002  8.666429138935387E-002
8.775439397889828E-002  8.885820837103961E-002  8.997590703902235E-002  9.110766462553724E-002
9.225365797000995E-002  9.341406613623200E-002  9.458907044034022E-002  9.577885447914770E-002
9.698360415883107E-002  9.820350772397901E-002  9.943875578700541E-002  1.006895413579333E-001
1.019560598745527E-001  1.032385092329587E-001  1.045370898184729E-001  1.058520045369535E-001
1.071834588465006E-001  1.085316607895589E-001  1.098968210254248E-001  1.112791528631630E-001
1.126788722949351E-001  1.140961980297503E-001  1.155313515276381E-001  1.169845570342525E-001
1.184560416159104E-001  1.199460351950715E-001  1.214547705862640E-001  1.229824835324622E-001
1.245294127419220E-001  1.260957999254800E-001  1.276818898343202E-001  1.292879302982178E-001
1.309141722642629E-001  1.325608698360711E-001  1.342282803134885E-001  1.359166642327944E-001
1.376262854074113E-001  1.393574109691260E-001  1.411103114098293E-001  1.428852606237817E-001
1.446825359504089E-001  1.465024182176372E-001  1.483451917857735E-001  1.502111445919369E-001
1.521005681950498E-001  1.540137578213942E-001  1.559510124107416E-001  1.579126346630631E-001
1.598989310858262E-001  1.619102120418887E-001  1.639467917979913E-001  1.660089885738647E-001
1.680971245919509E-001  1.702115261277506E-001  1.723525235608062E-001  1.745204514263217E-001
1.767156484674372E-001  1.789384576881568E-001  1.811892264069430E-001  1.834683063109880E-001
1.857760535111629E-001  1.881128285976632E-001  1.904789966963508E-001  1.928749275258043E-001
1.953009954550912E-001  1.977575795622606E-001  2.002450636935775E-001  2.027638365234987E-001
2.053142916154024E-001  2.078968274830867E-001  2.105118476530341E-001  2.131597607274671E-001
2.158409804481910E-001  2.185559257612414E-001  2.213050208823479E-001  2.240886953632154E-001
2.269073841586455E-001  2.297615276944973E-001  2.326515719365045E-001  2.355779684599605E-001
2.385411745202751E-001  2.415416531244242E-001  2.445798731032947E-001  2.476563091849388E-001
2.507714420687542E-001  2.539257585005908E-001  2.571197513488092E-001  2.603539196812905E-001
2.636287688434156E-001  2.669448105370298E-001  2.703025629003935E-001  2.737025505891452E-001
2.771453048582791E-001  2.806313636451531E-001  2.841612716535461E-001  2.877355804387651E-001
2.913548484938302E-001  2.950196413367390E-001  2.987305315988283E-001  3.024880991142525E-001
3.062929310105794E-001  3.101456218005347E-001  3.140467734748929E-001  3.179969955965392E-001
3.219969053957180E-001  3.260471278664720E-001  3.301482958643032E-001  3.343010502050557E-001
3.385060397650430E-001  3.427639215824400E-001  3.470753609599422E-001  3.514410315687248E-001
3.558616155537029E-001  3.603378036401169E-001  3.648702952414630E-001  3.694597985687745E-001
3.741070307412841E-001  3.788127178984744E-001  3.835775953135360E-001  3.884024075082608E-001
3.932879083693689E-001  3.982348612663102E-001  4.032440391705401E-001  4.083162247762962E-001
4.134522106229001E-001  4.186527992185881E-001  4.239188031659097E-001  4.292510452886963E-001
4.346503587606265E-001  4.401175872354168E-001  4.456535849786382E-001  4.512592170012016E-001
4.569353591945163E-001  4.626828984673466E-001  4.685027328843989E-001  4.743957718066397E-001
4.803629360333910E-001  4.864051579462044E-001  4.925233816545450E-001  4.987185631433166E-001
5.049916704222293E-001  5.113436836770590E-001  5.177755954228007E-001  5.242884106587492E-001
5.308831470255371E-001  5.375608349641370E-001  5.443225178768758E-001  5.511692522904668E-001
5.581021080210897E-001  5.651221683415595E-001  5.722305301505816E-001  5.794283041441518E-001
5.867166149891015E-001  5.940966014988267E-001  6.015694168112359E-001  6.091362285689232E-001
6.167982191016218E-001  6.245565856109419E-001  6.324125403574327E-001  6.403673108500089E-001
6.484221400377415E-001  6.565782865040802E-001  6.648370246635052E-001  6.731996449606542E-001
6.816674540719648E-001  6.902417751098361E-001  6.989239478293762E-001  7.077153288377376E-001
7.166172918060867E-001  7.256312276842509E-001  7.347585449180478E-001  7.440006696693660E-001
7.533590460390025E-001  7.628351362923019E-001  7.724304210876488E-001  7.821463997078111E-001
7.919845902942182E-001  8.019465300841626E-001  8.120337756510055E-001  8.222479031473910E-001
8.325905085515181E-001  8.430632079165264E-001  8.536676376229956E-001  8.644054546346436E-001
8.752783367572264E-001  8.862879829006937E-001  8.974361133446577E-001  9.087244700071780E-001
9.201548167169512E-001  9.317289394889078E-001  9.434486468032750E-001  9.553157698881681E-001
9.673321630057096E-001  9.794997037417732E-001  9.918202932993558E-001  1.004295856795639E+000
1.016928343562804E+000  1.029719727452605E+000  1.042672007144803E+000  1.055787206459450E+000
1.069067374673122E+000  1.082514586839122E+000  1.096130944111707E+000  1.109918574074405E+000
1.123879631072451E+000  1.138016296549401E+000  1.152330779388001E+000  1.166825316255314E+000
1.181502171952216E+000  1.196363639767272E+000  1.211412041835061E+000  1.226649729499026E+000
1.242079083678860E+000  1.257702515242550E+000  1.273522465383063E+000  1.289541405999793E+000
1.305761840084804E+000  1.322186302113919E+000  1.338817358442749E+000  1.355657607707682E+000
1.372709681231925E+000  1.389976243436662E+000  1.407459992257362E+000  1.425163659565352E+000
1.443090011594669E+000  1.461241849374285E+000  1.479622009165788E+000  1.498233362906535E+000
1.517078818658415E+000  1.536161321062235E+000  1.555483851797812E+000  1.575049430049892E+000
1.594861112979877E+000  1.614921996203535E+000  1.635235214274688E+000  1.655803941174980E+000
1.676631390809842E+000  1.697720817510649E+000  1.719075516543232E+000  1.740698824622763E+000
1.762594120435119E+000  1.784764825164821E+000  1.807214403029584E+000  1.829946361821627E+000
1.852964253455763E+000  1.876271674524382E+000  1.899872266859454E+000  1.923769718101540E+000
1.947967762276018E+000  1.972470180376527E+000  1.997280800955738E+000  2.022403500723602E+000
2.047842205153062E+000  2.073600889093444E+000  2.099683577391524E+000  2.126094345520408E+000
2.152837320216355E+000  2.179916680123565E+000  2.207336656447117E+000  2.235101533614106E+000
2.263215649943067E+000  2.291683398321883E+000  2.320509226894150E+000  2.349697639754231E+000
2.379253197651026E+000  2.409180518700577E+000  2.439484279107695E+000  2.470169213896589E+000
2.501240117650752E+000  2.532701845262115E+000  2.564559312689618E+000  2.596817497727370E+000
2.629481440782403E+000  2.662556245662280E+000  2.696047080372560E+000  2.729959177924293E+000
2.764297837151727E+000  2.799068423540218E+000  2.834276370064636E+000  2.869927178038262E+000
2.906026417972364E+000  2.942579730446636E+000  2.979592826990510E+000  3.017071490975630E+000
3.055021578519499E+000  3.093449019400497E+000  3.132359817984453E+000  3.171760054162798E+000
3.211655884302602E+000  3.252053542208499E+000  3.292959340096715E+000  3.334379669581404E+000
3.376321002673308E+000  3.418789892791058E+000  3.461792975785145E+000  3.505336970974764E+000
3.549428682197768E+000  3.594074998873728E+000  3.639282897080464E+000  3.685059440644054E+000
3.731411782242549E+000  3.778347164523644E+000  3.825872921236295E+000  3.873996478376688E+000
3.922725355348542E+000  3.972067166138009E+000  4.022029620503424E+000  4.072620525179921E+000
4.123847785099286E+000  4.175719404625114E+000  4.228243488803475E+000  4.281428244629397E+000
4.335281982329168E+000  4.389813116658877E+000  4.445030168219216E+000  4.500941764786817E+000
4.557556642662410E+000  4.614883648035833E+000  4.672931738368313E+000  4.731709983792078E+000
4.791227568527538E+000  4.851493792318418E+000  4.912518071884781E+000  4.974309942394471E+000
5.036879058952980E+000  5.100235198112053E+000  5.164388259397349E+000  5.229348266855196E+000
5.295125370618930E+000  5.361729848494850E+000  5.429172107568111E+000  5.497462685828927E+000
5.566612253819067E+000  5.636631616299228E+000  5.707531713937262E+000  5.779323625017651E+000
5.852018567172586E+000  5.925627899134654E+000  6.000163122511746E+000  6.075635883584168E+000
6.152057975124366E+000  6.229441338239648E+000  6.307798064237915E+000  6.387140396517035E+000
6.467480732477860E+000  6.548831625461315E+000  6.631205786709961E+000  6.714616087354061E+000
6.799075560422803E+000  6.884597402880701E+000  6.971194977689608E+000  7.058881815896798E+000
7.147671618749116E+000  7.237578259833914E+000  7.328615787246791E+000  7.420798425786598E+000
7.514140579178179E+000  7.608656832322881E+000  7.704361953577565E+000  7.801270897062157E+000
7.899398804996207E+000  7.998761010065007E+000  8.099373037815219E+000  8.201250609080892E+000
8.304409642439824E+000  8.408866256700824E+000  8.514636773422421E+000  8.621737719463011E+000
8.730185829563329E+000  8.839998048961235E+000  8.951191536039389E+000  9.063783665006406E+000
9.177792028611478E+000  9.293234440893380E+000  9.410128939963922E+000  9.528493790826374E+000
9.648347488229529E+000  9.769708759557417E+000  9.892596567755614E+000  1.001703011429418E+001
1.014302884216790E+001  1.027061243893438E+001  1.039980083979014E+001  1.053061423068569E+001
1.066307305147949E+001  1.079719799913176E+001  1.093301003093849E+001  1.107053036780591E+001
1.120978049756647E+001  1.135078217833627E+001  1.149355744191476E+001  1.163812859722740E+001
1.178451823381128E+001  1.193274922534499E+001  1.208284473322255E+001  1.223482821017239E+001
1.238872340392204E+001  1.254455436090859E+001  1.270234543003612E+001  1.286212126648025E+001
1.302390683554042E+001  1.318772741654102E+001  1.335360860678107E+001  1.352157632553405E+001
1.369165681809778E+001  1.386387665989521E+001  1.403826276062705E+001  1.421484236847628E+001
1.439364307436590E+001  1.457469281627002E+001  1.475801988357909E+001  1.494365292152043E+001
1.513162093563382E+001  1.532195329630393E+001  1.551467974334937E+001  1.570983039066954E+001
1.590743573095018E+001  1.610752664042768E+001  1.631013438371376E+001  1.651529061868056E+001
1.672302740140711E+001  1.693337719118843E+001  1.714637285560707E+001  1.736204767566896E+001
1.758043535100356E+001  1.780157000512940E+001  1.802548619078615E+001  1.825221889533332E+001
1.848180354621731E+001  1.871427601650694E+001  1.894967263049862E+001  1.918803016939225E+001
1.942938587703817E+001  1.967377746575677E+001  1.992124312223103E+001  2.017182151347320E+001
2.042555179286677E+001  2.068247360628405E+001  2.094262709828112E+001  2.120605291837045E+001
2.147279222737229E+001  2.174288670384643E+001  2.201637855060424E+001  2.229331050130327E+001
2.257372582712425E+001  2.285766834353228E+001  2.314518241712332E+001  2.343631297255623E+001
2.373110549957265E+001  2.402960606010474E+001  2.433186129547228E+001  2.463791843367084E+001
2.494782529675086E+001  2.526163030829023E+001  2.557938250096051E+001  2.590113152418817E+001
2.622692765191280E+001  2.655682179044209E+001  2.689086548640641E+001  2.722911093481292E+001
2.757161098720100E+001  2.791841915990076E+001  2.826958964239467E+001  2.862517730578513E+001
2.898523771136805E+001  2.934982711931424E+001  2.971900249746056E+001  3.009282153021084E+001
3.047134262754953E+001  3.085462493416826E+001  3.124272833870712E+001  3.163571348311279E+001
3.203364177211350E+001  3.243657538281405E+001  3.284457727441094E+001  3.325771119802972E+001
3.367604170668658E+001  3.409963416537450E+001  3.452855476127699E+001  3.496287051410989E+001
3.540264928659307E+001  3.584795979505459E+001  3.629887162016728E+001  3.675545521782123E+001
3.721778193013260E+001  3.768592399659064E+001  3.815995456534582E+001  3.863994770463881E+001
3.912597841437422E+001  3.961812263783938E+001  4.011645727357033E+001  4.062106018736790E+001
4.113201022446387E+001  4.164938722184114E+001  4.217327202070823E+001  4.270374647913066E+001
4.324089348482200E+001  4.378479696809453E+001  4.433554191497419E+001  4.489321438047951E+001
4.545790150206764E+001  4.602969151325038E+001  4.660867375738012E+001  4.719493870161052E+001
4.778857795103200E+001  4.838968426298485E+001  4.899835156155346E+001  4.961467495224139E+001
5.023875073683244E+001  5.087067642843775E+001  5.151055076673212E+001  5.215847373338289E+001
5.281454656767167E+001  5.347887178231366E+001  5.415155317947535E+001  5.483269586699343E+001
5.552240627479881E+001  5.622079217154574E+001  5.692796268145156E+001  5.764402830134730E+001
5.836910091794272E+001  5.910329382530952E+001  5.984672174258301E+001  6.059950083188787E+001
6.136174871648847E+001  6.213358449916736E+001  6.291512878083613E+001  6.370650367937860E+001
6.450783284873285E+001  6.531924149821207E+001  6.614085641206827E+001  6.697280596930359E+001
6.781522016372874E+001  6.866823062427561E+001  6.953197063556424E+001  7.040657515872844E+001
7.129218085250461E+001  7.218892609458393E+001  7.309695100323505E+001  7.401639745919745E+001
7.494740912785024E+001  7.589013148166109E+001  7.684471182291546E+001  7.781129930673397E+001
7.879004496437760E+001  7.978110172684637E+001  8.078462444877603E+001  8.180076993263323E+001
8.282969695321739E+001  8.387156628246896E+001  8.492654071459003E+001  8.599478509148231E+001
8.707646632850273E+001  8.817175344054542E+001  8.928081756845017E+001  9.040383200574308E+001
9.154097222571507E+001  9.269241590883871E+001  9.385834297053231E+001  9.503893558927149E+001
9.623437823505454E+001  9.744485769822735E+001  9.867056311866844E+001  9.991168601534366E+001
1.011684203162308E+002
</PP_R>
<PP_RAB type="real" size="1157" columns="4">
6.705014452606738E-007  6.789353151978105E-007  6.874752701592516E-007  6.961226445303339E-007
7.048787894808970E-007  7.137450731764036E-007  7.227228809917196E-007  7.318136157275819E-007
7.410186978297871E-007  7.503395656111432E-007  7.597776754762038E-007  7.693345021488372E-007
7.790115389026545E-007  7.888102977943359E-007  7.987323098998955E-007  8.087791255539105E-007
8.189523145917671E-007  8.292534665949502E-007  8.396841911394173E-007  8.502461180471014E-007
8.609408976405695E-007  8.717702010008918E-007  8.827357202287506E-007  8.938391687088345E-007
9.050822813775597E-007  9.164668149941540E-007  9.279945484151577E-007  9.396672828723710E-007
9.514868422543001E-007  9.634550733911471E-007  9.755738463433762E-007  9.878450546939168E-007