<UPF version="2.0.1">
<PP_INFO>
Generated in analytical, separable form
Author: Goedecker/Hartwigsen/Hutter/Teter
Generation date: Phys.Rev.B58, 3641 (1998); B54, 1703 (1996)
Pseudopotential type: NC
Element: He
Functional: SLA-PZ-NOGX-NOGC

Suggested minimum cutoff for wavefunctions:   0. Ry
Suggested minimum cutoff for charge density:   0. Ry
The Pseudo was generated with a Scalar-Relativistic Calculation
Local Potential: unknown format, L component and cutoff radius: -3   0.0000

Valence configuration:
nl pn  l   occ       Rcut    Rcut US       E pseu

Generation configuration: not available.
Converted from CPMD format using cpmd2upf v.5.0.1 - PG 10Jul2012
Contains atomic orbitals generated by ld1.x - use with care
</PP_INFO>
<!--                               -->
<!-- END OF HUMAN READABLE SECTION -->
<!--                               -->
<PP_HEADER generated="Generated in analytical, separable form"
author="Goedecker/Hartwigsen/Hutter/Teter"
date="Phys.Rev.B58, 3641 (1998); B54, 1703 (1996)"
comment="Contains atomic orbitals generated by ld1.x - use with care"
element="He"
pseudo_type="NC"
relativistic="scalar"
is_ultrasoft="F"
is_paw="F"
is_coulomb="F"
has_so="F"
has_wfc="F"
has_gipaw="F"
paw_as_gipaw="F"
core_correction="F"
functional="SLA-PZ-NOGX-NOGC"
z_valence="2.000000000000000E+000"
total_psenergy="0.000000000000000E+000"
wfc_cutoff="0.000000000000000E+000"
rho_cutoff="0.000000000000000E+000"
l_max="-1"
l_max_rho="0"
l_local="-3"
mesh_size="985"
number_of_wfc=" 1"
number_of_proj="0"/>
<PP_MESH dx="1.250000000000000E-002" mesh="985" xmin="-7.000000000000000E+000" rmax="1.001684049873959E+002"
zmesh="2.000000000000000E+000">
<PP_R type="real" size="985" columns="4">
4.559409827772581E-004  4.616760143345111E-004  4.674831837082911E-004  4.733633982806270E-004
4.793175768470099E-004  4.853466497599544E-004  4.914515590743693E-004  4.976332586947557E-004
5.038927145242552E-004  5.102309046155773E-004  5.166488193238185E-004  5.231474614612093E-004
5.297278464538051E-004  5.363910025001484E-004  5.431379707319289E-004  5.499698053766591E-004
5.568875739224016E-004  5.638923572845662E-004  5.709852499748038E-004  5.781673602720289E-004
5.854398103955872E-004  5.928037366806064E-004  6.002602897555504E-004  6.078106347220073E-004
6.154559513367405E-004  6.231974341960248E-004  6.310362929223073E-004  6.389737523532122E-004
6.470110527329240E-004  6.551494499059800E-004  6.633902155134958E-004  6.717346371918634E-004
6.801840187739469E-004  6.887396804928085E-004  6.974029591879994E-004  7.061752085144408E-004
7.150577991539372E-004  7.240521190293478E-004  7.331595735214515E-004  7.423815856885434E-004
7.517195964887862E-004  7.611750650053658E-004  7.707494686744751E-004  7.804443035161661E-004
7.902610843681085E-004  8.002013451222822E-004  8.102666389646533E-004  8.204585386178630E-004
8.307786365869670E-004  8.412285454082706E-004  8.518098979012870E-004  8.625243474238712E-004
8.733735681305598E-004  8.843592552341603E-004  8.954831252706349E-004  9.067469163673076E-004
9.181523885144536E-004  9.297013238403005E-004  9.413955268894887E-004  9.532368249050383E-004
9.652270681138547E-004  9.773681300158335E-004  9.896619076765983E-004  1.002110322023920E-003
1.014715318147867E-003  1.027478865604729E-003  1.040402958724765E-003  1.053489616923817E-003
1.066740885018854E-003  1.080158833547477E-003  1.093745559091443E-003  1.107503184604258E-003
1.121433859742902E-003  1.135539761203703E-003  1.149823093062468E-003  1.164286087118857E-003
1.178931003245116E-003  1.193760129739187E-003  1.208775783682252E-003  1.223980311300792E-003
1.239376088333179E-003  1.254965520400899E-003  1.270751043384429E-003  1.286735123803850E-003
1.302920259204249E-003  1.319308978545961E-003  1.335903842599725E-003  1.352707444346813E-003
1.369722409384184E-003  1.386951396334744E-003  1.404397097262756E-003  1.422062238094484E-003
1.439949579044122E-003  1.458061915045084E-003  1.476402076186723E-003  1.494972928156530E-003
1.513777372687908E-003  1.532818348013572E-003  1.552098829324654E-003  1.571621829235590E-003
1.591390398254833E-003  1.611407625261513E-003  1.631676637988074E-003  1.652200603508991E-003
1.672982728735636E-003  1.694026260917356E-003  1.715334488148867E-003  1.736910739884027E-003
1.758758387456064E-003  1.780880844604365E-003  1.803281568007865E-003  1.825964057825172E-003
1.848931858241466E-003  1.872188558022290E-003  1.895737791074304E-003  1.919583237013082E-003
1.943728621738065E-003  1.968177718014742E-003  1.992934346064145E-003  2.018002374159779E-003
2.043385719232033E-003  2.069088347480218E-003  2.095114274992290E-003  2.121467568372370E-003
2.148152345376170E-003  2.175172775554385E-003  2.202533080904203E-003  2.230237536529001E-003
2.258290471306333E-003  2.286696268564337E-003  2.315459366766623E-003  2.344584260205806E-003
2.374075499705739E-003  2.403937693332593E-003  2.434175507114882E-003  2.464793665772526E-003
2.495796953455108E-003  2.527190214489407E-003  2.558978354136326E-003  2.591166339357362E-003
2.623759199590692E-003  2.656762027537038E-003  2.690179979955410E-003  2.724018278468862E-003
2.758282210380386E-003  2.792977129499050E-003  2.828108456976554E-003  2.863681682154293E-003
2.899702363421071E-003  2.936176129081626E-003  2.973108678236047E-003  3.010505781670279E-003
3.048373282757819E-003  3.086717098372751E-003  3.125543219814281E-003  3.164857713742873E-003
3.204666723128192E-003  3.244976468208944E-003  3.285793247464806E-003  3.327123438600587E-003
3.368973499542734E-003  3.411349969448414E-003  3.454259469727266E-003  3.497708705076005E-003
3.541704464526063E-003  3.586253622504349E-003  3.631363139907446E-003  3.677040065189218E-003
3.723291535462169E-003  3.770124777612638E-003  3.817547109429981E-003  3.865565940750035E-003
3.914188774612887E-003  3.963423208435247E-003  4.013276935197580E-003  4.063757744646106E-003
4.114873524510015E-003  4.166632261733904E-003  4.219042043725765E-003  4.272111059620673E-003
4.325847601560317E-003  4.380260065988714E-003  4.435356954964129E-003  4.491146877487558E-003
4.547638550847912E-003  4.604840801984070E-003  4.662762568864163E-003  4.721412901882106E-003
4.780800965271752E-003  4.840936038538846E-003  4.901827517910914E-003  4.963484917805506E-003
5.025917872316793E-003  5.089136136720934E-003  5.153149589000375E-003  5.217968231387252E-003
5.283602191926327E-003  5.350061726057464E-003  5.417357218218076E-003  5.485499183465744E-003
5.554498269121153E-003  5.624365256431832E-003  5.695111062256689E-003  5.766746740771811E-003
5.839283485197726E-003  5.912732629548309E-003  5.987105650401811E-003  6.062414168694050E-003
6.138669951534218E-003  6.215884914043546E-003  6.294071121216999E-003  6.373240789808534E-003
6.453406290239936E-003  6.534580148533740E-003  6.616775048270470E-003  6.700003832570414E-003
6.784279506100467E-003  6.869615237106072E-003  6.956024359468810E-003  7.043520374789868E-003
7.132116954499628E-003  7.221827941993940E-003  7.312667354797111E-003  7.404649386752200E-003
7.497788410238859E-003  7.592098978418973E-003  7.687595827510716E-003  7.784293879091045E-003
7.882208242427243E-003  7.981354216837811E-003  8.081747294082937E-003  8.183403160785214E-003
8.286337700880627E-003  8.390566998100479E-003  8.496107338484542E-003  8.602975212925692E-003
8.711187319746757E-003  8.820760567309582E-003  8.931712076657017E-003  9.044059184188156E-003
9.157819444367089E-003  9.273010632465942E-003  9.389650747342205E-003  9.507758014251128E-003
9.627350887693465E-003  9.748448054298997E-003  9.871068435746391E-003  9.995231191719715E-003
1.012095572290220E-002  1.024826167400763E-002  1.037716893684987E-002  1.050769765345102E-002
1.063986821918859E-002  1.077370128598239E-002  1.090921776552139E-002  1.104643883253122E-002
1.118538592808280E-002  1.132608076294249E-002  1.146854532096447E-002  1.161280186252579E-002
1.175887292800455E-002  1.190678134130194E-002  1.205655021340844E-002  1.220820294601502E-002
1.236176323516970E-002  1.251725507498007E-002  1.267470276136247E-002  1.283413089583822E-002
1.299556438937767E-002  1.315902846629266E-002  1.332454866817774E-002  1.349215085790124E-002
1.366186122364628E-002  1.383370628300279E-002  1.400771288711091E-002  1.418390822485655E-002
1.436231982711972E-002  1.454297557107624E-002  1.472590368455364E-002  1.491113275044186E-002
1.509869171115925E-002  1.528860987317505E-002  1.548091691158845E-002  1.567564287476544E-002
1.587281818903398E-002  1.607247366343803E-002  1.627464049455172E-002  1.647935027135368E-002
1.668663498016304E-002  1.689652700963728E-002  1.710905915583302E-002  1.732426462733051E-002
1.754217705042252E-002  1.776283047436848E-002  1.798625937671483E-002  1.821249866868212E-002
1.844158370062001E-002  1.867355026753081E-002  1.890843461466254E-002  1.914627344317233E-002
1.938710391586100E-002  1.963096366297991E-002  1.987789078811066E-002  2.012792387411893E-002
2.038110198918311E-002  2.063746469289877E-002  2.089705204245996E-002  2.115990459891816E-002
2.142606343352009E-002  2.169557013412519E-002  2.196846681170371E-002  2.224479610691676E-002
2.252460119677891E-002  2.280792580140470E-002  2.309481419084006E-002  2.338531119197949E-002
2.367946219557046E-002  2.397731316330574E-002  2.427891063500499E-002  2.458430173588679E-002
2.489353418393197E-002  2.520665629733969E-002  2.552371700207721E-002  2.584476583952471E-002
2.616985297421619E-002  2.649902920167790E-002  2.683234595636507E-002  2.716985531969875E-002
2.751161002820363E-002  2.785766348174820E-002  2.820806975188868E-002  2.856288359031765E-002
2.892216043741924E-002  2.928595643093178E-002  2.965432841471936E-002  3.002733394765397E-002
3.040503131260899E-002  3.078747952556612E-002  3.117473834483673E-002  3.156686828039919E-002
3.196393060335379E-002  3.236598735549628E-002  3.277310135901218E-002  3.318533622629282E-002
3.360275636987488E-002  3.402542701250510E-002  3.445341419733129E-002  3.488678479822183E-002
3.532560653021481E-002  3.576994796009861E-002  3.621987851712573E-002  3.667546850386107E-002
3.713678910716695E-002  3.760391240932622E-002  3.807691139930516E-002  3.855585998415836E-002
3.904083300057658E-002  3.953190622658034E-002  4.002915639336029E-002  4.053266119726662E-002
4.104249931194940E-002  4.155875040065128E-002  4.208149512865520E-002  4.261081517588844E-002
4.314679324968525E-002  4.368951309771019E-002  4.423905952104366E-002  4.479551838743236E-002
4.535897664470628E-002  4.592952233436445E-002  4.650724460533175E-002  4.709223372788834E-002
4.768458110777483E-002  4.828437930047443E-002  4.889172202567502E-002  4.950670418191315E-002
5.012942186140187E-002  5.075997236504554E-002  5.139845421764322E-002  5.204496718328332E-002
5.269961228093217E-002  5.336249180021811E-002  5.403370931741466E-002  5.471336971162449E-002
5.540157918116698E-002  5.609844526017187E-002  5.680407683538188E-002  5.751858416316621E-002
5.824207888674851E-002  5.897467405365129E-002  5.971648413335981E-002  6.046762503520835E-002
6.122821412649097E-002  6.199837025080064E-002  6.277821374659866E-002  6.356786646601779E-002
6.436745179390212E-002  6.517709466708585E-002  6.599692159391514E-002  6.682706067401525E-002
6.766764161830635E-002  6.851879576927124E-002  6.938065612147765E-002  7.025335734235909E-002
7.113703579325684E-002  7.203182955072664E-002  7.293787842811371E-002  7.385532399739843E-002
7.478430961131756E-002  7.572498042576334E-002  7.667748342246423E-002  7.764196743195151E-002
7.861858315681383E-002  7.960748319524517E-002  8.060882206488844E-002  8.162275622697920E-002
8.264944411079328E-002  8.368904613840128E-002  8.474172474973510E-002  8.580764442796943E-002
8.688697172522257E-002  8.797987528858076E-002  8.908652588644925E-002  9.020709643523543E-002
9.134176202636739E-002  9.249069995365214E-002  9.365408974097852E-002  9.483211317036766E-002
9.602495431037711E-002  9.723279954486183E-002  9.845583760209703E-002  9.969425958426759E-002
1.009482589973277E-001  1.022180317812370E-001  1.035037763405764E-001  1.048056935755489E-001
1.061239869133715E-001  1.074588623400603E-001  1.088105284326165E-001  1.101791963916170E-001
1.115650800742149E-001  1.129683960275554E-001  1.143893635226113E-001  1.158282045884444E-001
1.172851440468989E-001  1.187604095477291E-001  1.202542316041711E-001  1.217668436289604E-001
1.232984819708033E-001  1.248493859513069E-001  1.264197979023732E-001  1.280099632040650E-001
1.296201303229458E-001  1.312505508509037E-001  1.329014795444634E-001  1.345731743645919E-001
1.362658965170063E-001  1.379799104929866E-001  1.397154841107037E-001  1.414728885570665E-001
1.432523984300950E-001  1.450542917818277E-001  1.468788501617665E-001  1.487263586608704E-001
1.505971059561012E-001  1.524913843555296E-001  1.544094898440100E-001  1.563517221294269E-001
1.583183846895267E-001  1.603097848193354E-001  1.623262336791749E-001  1.643680463432821E-001
1.664355418490398E-001  1.685290432468272E-001  1.706488776504970E-001  1.727953762884873E-001
1.749688745555777E-001  1.771697120652944E-001  1.793982327029759E-001  1.816547846795057E-001
1.839397205857212E-001  1.862533974475065E-001  1.885961767815785E-001  1.909684246519746E-001
1.933705117272508E-001  1.958028133383995E-001  1.982657095374965E-001  2.007595851570834E-001
2.032848298702997E-001  2.058418382517694E-001  2.084310098392542E-001  2.110527491960828E-001
2.137074659743634E-001  2.163955749789938E-001  2.191174962324748E-001  2.218736550405399E-001
2.246644820586108E-001  2.274904133590868E-001  2.303518904994830E-001  2.332493605914243E-001
2.361832763705073E-001  2.391540962670421E-001  2.421622844776813E-001  2.452083110379532E-001
2.482926518957049E-001  2.514157889854705E-001  2.545782103037746E-001  2.577804099853822E-001
2.610228883805082E-001  2.643061521329989E-001  2.676307142594951E-001  2.709970942295936E-001
2.744058180470133E-001  2.778574183317858E-001  2.813524344034781E-001  2.848914123654615E-001
2.884749051902434E-001  2.921034728058680E-001  2.957776821834077E-001  2.994981074255529E-001
3.032653298563167E-001  3.070799381118690E-001  3.109425282325102E-001  3.148537037558052E-001
3.188140758108869E-001  3.228242632139460E-001  3.268848925649237E-001  3.309965983454171E-001
3.351600230178198E-001  3.393758171257074E-001  3.436446393954861E-001  3.479671568393211E-001
3.523440448593568E-001  3.567759873532514E-001  3.612636768210363E-001  3.658078144733209E-001
3.704091103408590E-001  3.750682833854910E-001  3.797860616124845E-001  3.845631821842855E-001
3.894003915357024E-001  3.942984454905384E-001  3.992581093796886E-001  4.042801581607264E-001
4.093653765389912E-001  4.145145590902002E-001  4.197285103846037E-001  4.250080451126992E-001
4.303539882125291E-001  4.357671749985793E-001  4.412484512922977E-001  4.467986735542579E-001
4.524187090179799E-001  4.581094358254391E-001  4.638717431642768E-001  4.697065314067379E-001
4.756147122503571E-001  4.815972088604111E-001  4.876549560141666E-001  4.937889002469411E-001
5.000000000000000E-001  5.062892257703173E-001  5.126575602622147E-001  5.191059985409128E-001
5.256355481880124E-001  5.322472294589297E-001  5.389420754423159E-001  5.457211322214760E-001
5.525854590378241E-001  5.595361284563907E-001  5.665742265334132E-001  5.737008529860362E-001
5.809171213641418E-001  5.882241592243456E-001  5.956231083061795E-001  6.031151247104903E-001
6.107013790800850E-001  6.183830567826426E-001  6.261613580959325E-001  6.340374983953602E-001
6.420127083438707E-001  6.500882340842457E-001  6.582653374338110E-001  6.665452960816017E-001
6.749294037880020E-001  6.834189705868982E-001  6.920153229903758E-001  7.007198041959869E-001
7.095337742966290E-001  7.184586104930627E-001  7.274957073091006E-001  7.366464768095079E-001
7.459123488206354E-001  7.552947711538367E-001  7.647952098316899E-001  7.744151493170666E-001
7.841560927450846E-001  7.940195621579720E-001  8.040070987428919E-001  8.141202630727555E-001
8.243606353500641E-001  8.347298156538215E-001  8.452294241895459E-001  8.558611015424327E-001
8.666265089336982E-001  8.775273284801492E-001  8.885652634570194E-001  8.997420385641046E-001
9.110594001952550E-001  9.225191167112505E-001  9.341229787161112E-001  9.458727993368851E-001
9.577704145069483E-001  9.698176832528775E-001  9.820164879849242E-001  9.943687347911460E-001
1.006876353735239E+000  1.019541299158108E+000  1.032365549983244E+000  1.045351110025929E+000
1.058500008306337E+000  1.071814299366580E+000  1.085296063591721E+000  1.098947407534852E+000
1.112770464246235E+000  1.126767393606604E+000  1.140940382664652E+000  1.155291645978752E+000
1.169823425962996E+000  1.184537993237571E+000  1.199437646983549E+000  1.214524715302144E+000
1.229801555578475E+000  1.245270554849916E+000  1.260934130179075E+000  1.276794729031463E+000
1.292854829657923E+000  1.309116941481851E+000  1.325583605491304E+000  1.342257394636036E+000
1.359140914229523E+000  1.376236802356054E+000  1.393547730282926E+000  1.411076402877850E+000
1.428825559031583E+000  1.446797972085881E+000  1.464996450266852E+000  1.483423837123734E+000
1.502083011973216E+000  1.520976890349333E+000  1.540108424459016E+000  1.559480603643398E+000
1.579096454844884E+000  1.598959043080137E+000  1.619071471918982E+000  1.639436883969337E+000
1.660058461368276E+000  1.680939426279215E+000  1.702083041395409E+000  1.723492610449739E+000
1.745171478730921E+000  1.767123033606237E+000  1.789350705050790E+000  1.811857966183470E+000
1.834648333809623E+000  1.857725368970552E+000  1.881092677499957E+000  1.904753910587331E+000
1.928712765348487E+000  1.952972985403227E+000  1.977538361460289E+000  2.002412731909665E+000
2.027599983422338E+000  2.053104051557606E+000  2.078928921378005E+000  2.105078628071980E+000
2.131557257584411E+000  2.158368947255022E+000  2.185517886464878E+000  2.213008317290969E+000
2.240844535169032E+000  2.269030889564754E+000  2.297571784653345E+000  2.326471680007734E+000
2.355735091295372E+000  2.385366590983801E+000  2.415370809055142E+000  2.445752433729503E+000
2.476516212197557E+000  2.507666951362281E+000  2.539209518590041E+000  2.571148842471146E+000
2.603489913589925E+000  2.636237785304545E+000  2.669397574536590E+000  2.702974462570583E+000
2.736973695863603E+000  2.771400586865012E+000  2.806260514846577E+000  2.841558926742974E+000
2.877301338002865E+000  2.913493333450740E+000  2.950140568159509E+000  2.987248768334161E+000
3.024823732206475E+000  3.062871330940993E+000  3.101397509552436E+000  3.140408287834583E+000
3.179909761300915E+000  3.219908102137032E+000  3.260409560165056E+000  3.301420463820217E+000
3.342947221139636E+000  3.384996320763637E+000  3.427574332949591E+000  3.470687910598518E+000
3.514343790294650E+000  3.558548793357998E+000  3.603309826910233E+000  3.648633884953918E+000
3.694528049465325E+000  3.740999491501043E+000  3.788055472318424E+000  3.835703344510214E+000
3.883950553153389E+000  3.932804636972446E+000  3.982273229517390E+000  4.032364060356437E+000
4.083084956283823E+000  4.134443842542737E+000  4.186448744063632E+000  4.239107786718191E+000
4.292429198588948E+000  4.346421311255001E+000  4.401092561093806E+000  4.456451490599369E+000
4.512506749717065E+000  4.569267097195164E+000  4.626741401953445E+000  4.684938644468968E+000
4.743867918179263E+000  4.803538430903256E+000  4.863959506279944E+000  4.925140585225290E+000
4.987091227407364E+000  5.049821112740027E+000  5.113340042895505E+000  5.177657942835848E+000
5.242784862363785E+000  5.308730977693005E+000  5.375506593038177E+000  5.443122142225075E+000
5.511588190320802E+000  5.580915435284682E+000  5.651114709639795E+000  5.722196982165561E+000
5.794173359611701E+000  5.867055088433607E+000  5.940853556549698E+000  6.015580295120770E+000
6.091246980351737E+000  6.167865435316133E+000  6.245447631803406E+000  6.324005692189611E+000
6.403551891331521E+000  6.484098658484567E+000  6.565658579245015E+000  6.648244397516394E+000
6.731869017500855E+000  6.816545505715382E+000  6.902287093033547E+000  6.989107176752824E+000
7.077019322687904E+000  7.166037267290474E+000  7.256174919795463E+000  7.347446364394471E+000
7.439865862436425E+000  7.533447854655896E+000  7.628206963429590E+000  7.724157995061013E+000
7.821315942094086E+000  7.919695985655716E+000  8.019313497827838E+000  8.120184044049429E+000
8.222323385548531E+000  8.325747481805072E+000  8.430472493044524E+000  8.536514782762930E+000
8.643890920283832E+000  8.752617683347145E+000  8.862712060730821E+000  8.974191254905328E+000
9.087072684721534E+000  9.201373988132536E+000  9.317113024949508E+000  9.434307879632442E+000
9.552976864115834E+000  9.673138520669909E+000  9.794811624798010E+000  9.918015188170166E+000
1.004276846159383E+001  1.016909093802181E+001  1.029700235559802E+001  1.042652270074172E+001
1.055767221127031E+001  1.069047137956167E+001  1.082494095575604E+001  1.096110195099824E+001
1.109897564072083E+001  1.123858356796831E+001  1.137994754676336E+001  1.152308966551530E+001
1.166803229047136E+001  1.181479806921162E+001  1.196340993418758E+001  1.211389110630549E+001
1.226626509855469E+001  1.242055571968142E+001  1.257678707790920E+001  1.273498358470555E+001
1.289516995859653E+001  1.305737122902900E+001  1.322161274028140E+001  1.338792015542408E+001
1.355631946032895E+001  1.372683696773005E+001  1.389949932133485E+001  1.407433349998733E+001
1.425136682188366E+001  1.443062694884052E+001  1.461214189061747E+001  1.479594000929349E+001
1.498205002369851E+001  1.517050101390098E+001  1.536132242575147E+001  1.555454407548383E+001
1.575019615437398E+001  1.594830923345725E+001  1.614891426830536E+001  1.635204260386309E+001
1.655772597934616E+001  1.676599653320048E+001  1.697688680812378E+001  1.719042975615061E+001
1.740665874380102E+001  1.762560755729427E+001  1.784731040782795E+001  1.807180193692347E+001
1.829911722183902E+001  1.852929178105030E+001  1.876236157980050E+001  1.899836303571990E+001
1.923733302451607E+001  1.947930888573601E+001  1.972432842860028E+001  1.997242993791097E+001
2.022365218003372E+001  2.047803440895490E+001  2.073561637241541E+001  2.099643831812100E+001
2.126054100003139E+001  2.152796568472798E+001  2.179875415786175E+001  2.207294873068264E+001
2.235059224665043E+001  2.263172808812938E+001  2.291640018316676E+001  2.320465301235649E+001
2.349653161578967E+001  2.379208160009185E+001  2.409134914554941E+001  2.439438101332523E+001
2.470122455276509E+001  2.501192770879641E+001  2.532653902941933E+001  2.564510767329285E+001
2.596768341741575E+001  2.629431666490423E+001  2.662505845286785E+001  2.695996046038378E+001
2.729907501657212E+001  2.764245510877224E+001  2.799015439082208E+001  2.834222719144194E+001
2.869872852272312E+001  2.905971408872399E+001  2.942524029417373E+001  2.979536425328549E+001
3.017014379868103E+001  3.054963749042669E+001  3.093390462518394E+001  3.132300524547446E+001
3.171700014906167E+001  3.211595089845098E+001  3.251991983050851E+001  3.292897006620185E+001
3.334316552046261E+001  3.376257091217308E+001  3.418725177427911E+001  3.461727446402932E+001
3.505270617334393E+001  3.549361493931347E+001  3.594006965482954E+001  3.639214007934987E+001
3.684989684979792E+001  3.731341149160045E+001  3.778275642986334E+001  3.825800500068794E+001
3.873923146263049E+001  3.922651100830458E+001  3.971991977613067E+001  4.021953486223266E+001
4.072543433248407E+001  4.123769723470656E+001  4.175640361102064E+001  4.228163451035300E+001
4.281347200110033E+001  4.335199918395245E+001  4.389730020487746E+001  4.444946026826916E+001
4.500856565026091E+001  4.557470371220622E+001  4.614796291432894E+001  4.672843282954587E+001
4.731620415746207E+001  4.791136873854344E+001  4.851401956846672E+001  4.912425081265003E+001
4.974215782096697E+001  5.036783714264456E+001  5.100138654134985E+001  5.164290501046543E+001
5.229249278855711E+001  5.295025137503701E+001  5.361628354602228E+001  5.429069337039480E+001
5.497358622606180E+001  5.566506881642118E+001  5.636524918703466E+001  5.707423674250952E+001
5.779214226359383E+001  5.851907792448596E+001  5.925515731036167E+001  6.000049543512278E+001
6.075520875936748E+001  6.151941520858827E+001  6.229323419159773E+001  6.307678661918608E+001
6.387019492301452E+001  6.467358307474449E+001  6.548707660540930E+001  6.631080262502833E+001
6.714488984246776E+001  6.798946858555256E+001  6.884467082142936E+001  6.971063017718758E+001
7.058748196073850E+001  7.147536318195701E+001  7.237441257409057E+001  7.328477061543559E+001
7.420657955128830E+001  7.513998341617049E+001  7.608512805633481E+001  7.704216115255446E+001
7.801123224319755E+001  7.899249274759373E+001  7.998609598969334E+001  8.099219722202417E+001
8.201095364995099E+001  8.304252445623806E+001  8.408707082592272E+001  8.514475597150057E+001
8.621574515842717E+001  8.730020573094222E+001  8.839830713821623E+001  8.951022096082833E+001
9.063612093757568E+001  9.177618299261999E+001  9.293058526297716E+001  9.409950812635024E+001
9.528313422931500E+001  9.648164851585830E+001  9.769523825627547E+001  9.892409307643287E+001
1.001684049873959E+002
</PP_R>
<PP_RAB type="real" size="985" columns="4">
5.699262284715727E-006  5.770950179181390E-006  5.843539796353639E-006  5.917042478507837E-006
5.991469710587625E-006  6.066833121999431E-006  6.143144488429617E-006  6.220415733684446E-006
6.298658931553191E-006  6.377886307694717E-006  6.458110241547732E-006  6.539343268265116E-006
6.621598080672564E-006  6.704887531251856E-006  6.789224634149112E-006  6.874622567208239E-006
6.961094674030021E-006  7.048654466057077E-006  7.137315624685047E-006  7.227092003400362E-006
7.317997629944841E-006  7.410046708507581E-006  7.503253621944381E-006  7.597632934025092E-006
7.693199391709257E-006  7.789967927450309E-006  7.887953661528842E-006  7.987171904415153E-006
8.087638159161551E-006  8.189368123824750E-006  8.292377693918697E-006  8.396682964898293E-006
8.502300234674337E-006  8.609246006160108E-006  8.717536989849993E-006  8.827190106430510E-006
8.938222489424216E-006  9.050651487866848E-006  9.164494669018145E-006  9.279769821106794E-006
9.396494956109828E-006  9.514688312567073E-006  9.634368358430939E-006  9.755553793952078E-006
9.878263554601357E-006  1.000251681402853E-005  1.012833298705817E-005  1.025573173272329E-005
1.038473295733709E-005  1.051535681760338E-005  1.064762372376609E-005  1.078155434279839E-005
1.091716960163200E-005  1.105449069042700E-005  1.119353906588294E-005  1.133433645459135E-005
1.147690485643067E-005  1.162126654800376E-005  1.176744408611861E-005  1.191546031131298E-005
1.206533835142318E-005  1.221710162519792E-005  1.237077384595748E-005  1.252637902529900E-005
1.268394147684834E-005  1.284348582005912E-005  1.300503698405956E-005  1.316862021154771E-005
1.333426106273568E-005  1.350198541934347E-005  1.367181948864303E-005  1.384378980755323E-005
1.401792324678627E-005  1.419424701504629E-005  1.437278866328085E-005  1.455357608898571E-005
1.473663754056396E-005  1.492200162173984E-005  1.510969729602815E-005  1.529975389125990E-005
1.549220110416474E-005  1.568706900501124E-005  1.588438804230537E-005  1.608418904754812E-005
1.628650324005311E-005  1.649136223182451E-005  1.669879803249657E-005  1.690884305433517E-005
1.712153011730230E-005  1.733689245418431E-005  1.755496371578446E-005  1.777577797618105E-005
1.799936973805152E-005  1.822577393806355E-005  1.845502595233404E-005  1.868716160195663E-005
1.892221715859885E-005  1.916022935016965E-005  1.940123536655818E-005  1.964527286544488E-005
1.989237997818542E-005  2.014259531576891E-005  2.039595797485093E-005  2.065250754386239E-005
2.091228410919545E-005  2.117532826146695E-005  2.144168110186084E-005  2.171138424855034E-005
2.198447984320080E-005  2.226101055755456E-005  2.254101960009832E-005  2.282455072281465E-005
2.311164822801833E-005  2.340235697527863E-005  2.369672238842880E-005  2.399479046266352E-005
2.429660777172582E-005  2.460222147518427E-005  2.491167932580182E-005  2.522502967699724E-005
2.554232149040042E-005  2.586360434350273E-005  2.618892843740362E-005  2.651834460465463E-005
2.685190431720213E-005  2.718965969442981E-005  2.753166351130254E-005  2.787796920661251E-005
2.822863089132916E-005  2.858370335705421E-005  2.894324208458279E-005  2.930730325257257E-005
2.967594374632174E-005  3.004922116665741E-005  3.042719383893602E-005  3.080992082215658E-005
3.119746191818886E-005  3.158987768111759E-005  3.198722942670407E-005  3.238957924196703E-005
3.279698999488365E-005  3.320952534421298E-005  3.362724974944263E-005  3.405022848086079E-005
3.447852762975483E-005  3.491221411873812E-005  3.535135571220692E-005  3.579602102692866E-005
3.624627954276339E-005  3.670220161352033E-005  3.716385847795059E-005  3.763132227087849E-005
3.810466603447274E-005  3.858396372965938E-005  3.906929024767851E-005  3.956072142178592E-005
4.005833403910240E-005  4.056220585261179E-005  4.107241559331008E-005  4.158904298250734E-005
4.211216874428417E-005  4.264187461810517E-005  4.317824337159083E-005  4.372135881345007E-005
4.427130580657579E-005  4.482817028130437E-005  4.539203924884308E-005  4.596300081486523E-005
4.654114419327712E-005  4.712655972015798E-005  4.771933886787476E-005  4.831957425937544E-005
4.892735968266108E-005  4.954279010544059E-005  5.016596168996976E-005  5.079697180807632E-005
5.143591905637519E-005  5.208290327167381E-005  5.273802554657207E-005  5.340138824525842E-005
5.407309501950397E-005  5.475325082485893E-005  5.544196193705162E-005  5.613933596859448E-005
5.684548188559890E-005  5.756051002480088E-005  5.828453211080204E-005  5.901766127352633E-005
5.976001206589690E-005  6.051170048173558E-005  6.127284397388643E-005  6.204356147256883E-005
6.282397340395991E-005  6.361420170901168E-005  6.441436986250469E-005  6.522460289234065E-005
6.604502739907909E-005  6.687577157571830E-005  6.771696522772595E-005  6.856873979332180E-005
6.943122836401442E-005  7.030456570539791E-005  7.118888827820861E-005  7.208433425964764E-005