<UPF version="2.0.1">
<PP_INFO>
Generated in analytical, separable form
Author: Goedecker/Hartwigsen/Hutter/Teter
Generation date: Phys.Rev.B58, 3641 (1998); B54, 1703 (1996)
Pseudopotential type: NC
Element: Li
Functional: SLA-PZ-NOGX-NOGC

Suggested minimum cutoff for wavefunctions:   0. Ry
Suggested minimum cutoff for charge density:   0. Ry
The Pseudo was generated with a Scalar-Relativistic Calculation
Local Potential: unknown format, L component and cutoff radius: -3   0.0000

Valence configuration:
nl pn  l   occ       Rcut    Rcut US       E pseu

Generation configuration: not available.
Converted from CPMD format using cpmd2upf v.5.0.1 - PG 10Jul2012
Contains atomic orbitals generated by ld1.x - use with care
</PP_INFO>
<!--                               -->
<!-- END OF HUMAN READABLE SECTION -->
<!--                               -->
<PP_HEADER generated="Generated in analytical, separable form"
author="Goedecker/Hartwigsen/Hutter/Teter"
date="Phys.Rev.B58, 3641 (1998); B54, 1703 (1996)"
comment="Contains atomic orbitals generated by ld1.x - use with care"
element="Li"
pseudo_type="NC"
relativistic="scalar"
is_ultrasoft="F"
is_paw="F"
is_coulomb="F"
has_so="F"
has_wfc="F"
has_gipaw="F"
paw_as_gipaw="F"
core_correction="F"
functional="SLA-PZ-NOGX-NOGC"
z_valence="3.000000000000000E+000"
total_psenergy="0.000000000000000E+000"
wfc_cutoff="0.000000000000000E+000"
rho_cutoff="0.000000000000000E+000"
l_max="-1"
l_max_rho="0"
l_local="-3"
mesh_size="1017"
number_of_wfc=" 3"
number_of_proj="0"/>
<PP_MESH dx="1.250000000000000E-002" mesh="1017" xmin="-7.000000000000000E+000" rmax="9.962246698902020E+001"
zmesh="3.000000000000000E+000">
<PP_R type="real" size="1017" columns="4">
3.039606551848388E-004  3.077840095563408E-004  3.116554558055274E-004  3.155755988537513E-004
3.195450512313399E-004  3.235644331733030E-004  3.276343727162462E-004  3.317555057965038E-004
3.359284763495035E-004  3.401539364103849E-004  3.444325462158790E-004  3.487649743074729E-004
3.531518976358700E-004  3.575940016667656E-004  3.620919804879526E-004  3.666465369177728E-004
3.712583826149344E-004  3.759282381897108E-004  3.806568333165358E-004  3.854449068480192E-004
3.902932069303915E-004  3.952024911204043E-004  4.001735265037003E-004  4.052070898146716E-004
4.103039675578270E-004  4.154649561306832E-004  4.206908619482049E-004  4.259825015688081E-004
4.313407018219494E-004  4.367662999373200E-004  4.422601436756639E-004  4.478230914612423E-004
4.534560125159646E-004  4.591597869952057E-004  4.649353061253329E-004  4.707834723429605E-004
4.767051994359582E-004  4.827014126862319E-004  4.887730490143010E-004  4.949210571256956E-004
5.011463976591908E-004  5.074500433369106E-004  5.138329791163168E-004  5.202962023441107E-004
5.268407229120723E-004  5.334675634148547E-004  5.401777593097689E-004  5.469723590785753E-004
5.538524243913113E-004  5.608190302721804E-004  5.678732652675246E-004  5.750162316159141E-004
5.822490454203733E-004  5.895728368227735E-004  5.969887501804232E-004  6.044979442448717E-004
6.121015923429690E-004  6.198008825602004E-004  6.275970179263258E-004  6.354912166033588E-004
6.434847120759031E-004  6.515787533438890E-004  6.597746051177322E-004  6.680735480159464E-004
6.764768787652447E-004  6.849859104031530E-004  6.936019724831764E-004  7.023264112825447E-004
7.111605900125694E-004  7.201058890316515E-004  7.291637060609617E-004  7.383354564028389E-004
7.476225731619345E-004  7.570265074691357E-004  7.665487287083120E-004  7.761907247459046E-004
7.859540021634110E-004  7.958400864927911E-004  8.058505224548345E-004  8.159868742005277E-004
8.262507255554528E-004  8.366436802672662E-004  8.471673622562861E-004  8.578234158692333E-004
8.686135061361661E-004  8.795393190306405E-004  8.906025617331502E-004  9.018049628978756E-004
9.131482729227894E-004  9.246342642231629E-004  9.362647315085043E-004  9.480414920629891E-004
9.599663860294143E-004  9.720412766967226E-004  9.842680507911488E-004  9.966486187710200E-004
1.009184915125272E-003  1.021878898675714E-003  1.034732552883103E-003  1.047747886157060E-003
1.060926932169889E-003  1.074271750174342E-003  1.087784425325383E-003  1.101467069005994E-003
1.115321819157091E-003  1.129350840611570E-003  1.143556325432578E-003  1.157940493256018E-003
1.172505591637376E-003  1.187253896402910E-003  1.202187712005244E-003  1.217309371883448E-003
1.232621238827644E-003  1.248125705348193E-003  1.263825194049536E-003  1.279722158008721E-003
1.295819081158710E-003  1.312118478676494E-003  1.328622897376097E-003  1.345334916106520E-003
1.362257146154689E-003  1.379392231653479E-003  1.396742849994860E-003  1.414311712248247E-003
1.432101563584113E-003  1.450115183702923E-003  1.468355387269469E-003  1.486825024352667E-003
1.505526980870889E-003  1.524464179042891E-003  1.543639577844415E-003  1.563056173470537E-003
1.582716999803826E-003  1.602625128888395E-003  1.622783671409921E-003  1.643195777181684E-003
1.663864635636739E-003  1.684793476326271E-003  1.705985569424217E-003  1.727444226238242E-003
1.749172799727128E-003  1.771174685024692E-003  1.793453319970274E-003  1.816012185645908E-003
1.838854806920257E-003  1.861984752999367E-003  1.885405637984369E-003  1.909121121436195E-003
1.933134908947380E-003  1.957450752721084E-003  1.982072452157365E-003  2.007003854446853E-003
2.032248855171879E-003  2.057811398915167E-003  2.083695479876187E-003  2.109905142495249E-003
2.136444482085461E-003  2.163317645472629E-003  2.190528831643204E-003  2.218082292400391E-003
2.245982333028489E-003  2.274233312965609E-003  2.302839646484844E-003  2.331805803384004E-003
2.361136309684042E-003  2.390835748336233E-003  2.420908759938297E-003  2.451360043459479E-003
2.482194356974779E-003  2.513416518408425E-003  2.545031406286654E-003  2.577043960500023E-003
2.609459183075258E-003  2.642282138956831E-003  2.675517956798387E-003  2.709171829764070E-003
2.743249016340010E-003  2.777754841155936E-003  2.812694695817177E-003  2.848074039747116E-003
2.883898401040211E-003  2.920173377325809E-003  2.956904636642753E-003  2.994097918325039E-003
3.031759033898608E-003  3.069893867989380E-003  3.108508379242775E-003  3.147608601254737E-003
3.187200643514502E-003  3.227290692359231E-003  3.267885011940609E-003  3.308989945203671E-003
3.350611914877862E-003  3.392757424480623E-003  3.435433059333583E-003  3.478645487591501E-003
3.522401461284218E-003  3.566707817371643E-003  3.611571478812050E-003  3.656999455643829E-003
3.702998846080769E-003  3.749576837621222E-003  3.796740708171126E-003  3.844497827181207E-003
3.892855656798484E-003  3.941821753032206E-003  3.991403766934540E-003  4.041609445796033E-003
4.092446634356145E-003  4.143923276029031E-003  4.196047414144666E-003  4.248827193205689E-003
4.302270860159958E-003  4.356386765689160E-003  4.411183365513647E-003  4.466669221713610E-003
4.522853004066978E-003  4.579743491404047E-003  4.637349572979206E-003  4.695680249859912E-003
4.754744636333085E-003  4.814551961329293E-003  4.875111569864741E-003  4.936432924501467E-003
4.998525606825906E-003  5.061399318945982E-003  5.125063885007144E-003  5.189529252727363E-003
5.254805494951495E-003  5.320902811225207E-003  5.387831529388625E-003  5.455602107190143E-003
5.524225133920418E-003  5.593711332066986E-003  5.664071558989694E-003  5.735316808617128E-003
5.807458213164505E-003  5.880507044873054E-003  5.954474717771344E-003  6.029372789458771E-003
6.105212962911393E-003  6.182007088310629E-003  6.259767164894803E-003  6.338505342834085E-003
6.418233925128977E-003  6.498965369532665E-003  6.580712290497594E-003  6.663487461146477E-003
6.747303815268130E-003  6.832174449338420E-003  6.918112624566580E-003  7.005131768967343E-003
7.093245479459058E-003  7.182467523988257E-003  7.272811843680924E-003  7.364292555020815E-003
7.456923952055200E-003  7.550720508628324E-003  7.645696880642977E-003  7.741867908350525E-003
7.839248618669702E-003  7.937854227534626E-003  8.037700142272291E-003  8.138801964010012E-003
8.241175490113132E-003  8.344836716653382E-003  8.449801840908315E-003  8.556087263892145E-003
8.663709592918449E-003  8.772685644195104E-003  8.883032445451829E-003  8.994767238600829E-003
9.107907482430856E-003  9.222470855335193E-003  9.338475258073941E-003  9.455938816571034E-003
9.574879884746477E-003  9.695317047384159E-003  9.817269123035764E-003  9.940755166961237E-003
1.006579447410617E-002  1.019240658211670E-002  1.032061127439230E-002  1.045042858317696E-002
1.058187879268932E-002  1.071498244229202E-002  1.084976032970114E-002  1.098623351423579E-002
1.112442332010869E-002  1.126435133975819E-002  1.140603943722201E-002  1.154950975155367E-002
1.169478470028168E-002  1.184188698291232E-002  1.199083958447656E-002  1.214166577912141E-002
1.229438913374667E-002  1.244903351168721E-002  1.260562307644169E-002  1.276418229544822E-002
1.292473594390734E-002  1.308730910865327E-002  1.325192719207377E-002  1.341861591607928E-002
1.358740132612207E-002  1.375830979526585E-002  1.393136802830664E-002  1.410660306594544E-002
1.428404228901340E-002  1.446371342275012E-002  1.464564454113581E-002  1.482986407127784E-002
1.501640079785261E-002  1.520528386760314E-002  1.539654279389337E-002  1.559020746131966E-002
1.578630813038031E-002  1.598487544220382E-002  1.618594042333666E-002  1.638953449059119E-002
1.659568945595465E-002  1.680443753155979E-002  1.701581133471814E-002  1.722984389301647E-002
1.744656864947746E-002  1.766601946778527E-002  1.788823063757671E-002  1.811323687979917E-002
1.834107335213575E-002  1.857177565449880E-002  1.880537983459245E-002  1.904192239354510E-002
1.928144029161283E-002  1.952397095395452E-002  1.976955227647957E-002  2.001822263176932E-002
2.027002087507266E-002  2.052498635037741E-002  2.078315889655782E-002  2.104457885359946E-002
2.130928706890252E-002  2.157732490366418E-002  2.184873423934145E-002  2.212355748419521E-002
2.240183757991658E-002  2.268361800833673E-002  2.296894279822086E-002  2.325785653214789E-002
2.355040435347654E-002  2.384663197339907E-002  2.414658567808382E-002  2.445031233590738E-002
2.475785940477797E-002  2.506927493955081E-002  2.538460759953677E-002  2.570390665610557E-002
2.602722200038439E-002  2.635460415105356E-002  2.668610426224019E-002  2.702177413151108E-002
2.736166620796627E-002  2.770583360043419E-002  2.805433008577013E-002  2.840721011725896E-002
2.876452883312350E-002  2.912634206514013E-002  2.949270634736244E-002  2.986367892495491E-002
3.023931776313752E-002  3.061968155624296E-002  3.100482973688783E-002  3.139482248525890E-002
3.178972073851655E-002  3.218958620031629E-002  3.259448135045002E-002  3.300446945460877E-002
3.341961457426792E-002  3.383998157669703E-002  3.426563614509548E-002  3.469664478885555E-002
3.513307485395478E-002  3.557499453347874E-002  3.602247287827644E-002  3.647557980774966E-002
3.693438612077799E-002  3.739896350678124E-002  3.786938455692126E-002  3.834572277544415E-002
3.882805259116567E-002  3.931644936910086E-002  3.981098942223987E-002  4.031175002347223E-002
4.081880941766065E-002  4.133224683386710E-002  4.185214249773244E-002  4.237857764401187E-002
4.291163452926808E-002  4.345139644472390E-002  4.399794772927676E-002  4.455137378267684E-002
4.511176107887090E-002  4.567919717951416E-002  4.625377074765177E-002  4.683557156157273E-002
4.742469052883789E-002  4.802121970048442E-002  4.862525228540914E-002  4.923688266493229E-002
4.985620640754504E-002  5.048332028384223E-002  5.111832228164282E-002  5.176131162130101E-002
5.241238877120922E-002  5.307165546349678E-002  5.373921470992563E-002  5.441517081798614E-002
5.509962940719552E-002  5.579269742560086E-002  5.649448316649006E-002  5.720509628531295E-002
5.792464781681505E-002  5.865325019238717E-002  5.939101725763283E-002  6.013806429015695E-002
6.089450801757826E-002  6.166046663576810E-002  6.243605982731901E-002  6.322140878024511E-002
6.401663620691807E-002  6.482186636324122E-002  6.563722506806469E-002  6.646283972284506E-002
6.729883933155183E-002  6.814535452082469E-002  6.900251756038427E-002  6.987046238369927E-002
7.074932460891437E-002  7.163924156004021E-002  7.254035228841101E-002  7.345279759441133E-002
7.437672004947661E-002  7.531226401837030E-002  7.625957568174084E-002  7.721880305896296E-002
7.819009603126593E-002  7.917360636515271E-002  8.016948773611406E-002  8.117789575264027E-002
8.219898798053553E-002  8.323292396753791E-002  8.427986526824882E-002  8.533997546937670E-002
8.641342021529720E-002  8.750036723393580E-002  8.860098636297559E-002  8.971544957639462E-002
9.084393101133754E-002  9.198660699532440E-002  9.314365607380248E-002  9.431525903804434E-002
9.550159895339670E-002  9.670286118788513E-002  9.791923344117764E-002  9.915090577391357E-002
1.003980706374008E-001  1.016609229036864E-001  1.029396598960066E-001  1.042344814196180E-001
1.055455897930178E-001  1.068731898795570E-001  1.082174891194499E-001  1.095786975621881E-001
1.109570278993599E-001  1.123526954978848E-001  1.137659184336646E-001  1.151969175256582E-001
1.166459163703851E-001  1.181131413768629E-001  1.195988218019839E-001  1.211031897863372E-001
1.226264803904808E-001  1.241689316316710E-001  1.257307845210524E-001  1.273122831013164E-001
1.289136744848338E-001  1.305352088922663E-001  1.321771396916643E-001  1.338397234380556E-001
1.355232199135331E-001  1.372278921678463E-001  1.389540065595028E-001  1.407018327973885E-001
1.424716439829089E-001  1.442637166526625E-001  1.460783308216499E-001  1.479157700270266E-001
1.497763213724072E-001  1.516602755727246E-001  1.535679269996554E-001  1.554995737276162E-001
1.574555175803382E-001  1.594360641780281E-001  1.614415229851209E-001  1.634722073586355E-001
1.655284345971366E-001  1.676105259903136E-001  1.697188068691831E-001  1.718536066569214E-001
1.740152589203388E-001  1.762041014219992E-001  1.784204761729968E-001  1.806647294863958E-001
1.829372120313422E-001  1.852382788878572E-001  1.875682896023187E-001  1.899276082436410E-001
1.923166034601622E-001  1.947356485372453E-001  1.971851214556052E-001  1.996654049503686E-001
2.021768865708778E-001  2.047199587412460E-001  2.072950188216734E-001  2.099024691705368E-001
2.125427172072579E-001  2.152161754759640E-001  2.179232617099491E-001  2.206643988969448E-001
2.234400153452132E-001  2.262505447504716E-001  2.290964262636574E-001  2.319781045595474E-001
2.348960299062379E-001  2.378506582355010E-001  2.408424512140242E-001  2.438718763155473E-001
2.469394068939060E-001  2.500455222569940E-001  2.531907077416563E-001  2.563754547895237E-001
2.596002610238016E-001  2.628656303270256E-001  2.661720729197924E-001  2.695201054404843E-001
2.729102510259941E-001  2.763430393934668E-001  2.798190069230692E-001  2.833386967417995E-001
2.869026588083528E-001  2.905114499990528E-001  2.941656341948651E-001  2.978657823695053E-001
3.016124726786533E-001  3.054062905502927E-001  3.092478287761845E-001  3.131376876044920E-001
3.170764748335714E-001  3.210648059069407E-001  3.251033040094444E-001  3.291926001646274E-001
3.333333333333333E-001  3.375261505135449E-001  3.417717068414765E-001  3.460706656939418E-001
3.504236987920082E-001  3.548314863059531E-001  3.592947169615439E-001  3.638140881476506E-001
3.683903060252161E-001  3.730240856375938E-001  3.777161510222755E-001  3.824672353240242E-001
3.872780809094278E-001  3.921494394828970E-001  3.970820722041197E-001  4.020767498069935E-001
4.071342527200567E-001  4.122553711884284E-001  4.174409053972883E-001  4.226916655969068E-001
4.280084722292471E-001  4.333921560561638E-001  4.388435582892073E-001  4.443635307210678E-001
4.499529358586680E-001  4.556126470579321E-001  4.613435486602506E-001  4.671465361306579E-001
4.730225161977527E-001  4.789724069953751E-001  4.849971382060671E-001  4.910976512063386E-001
4.972748992137569E-001  5.035298474358911E-001  5.098634732211266E-001  5.162767662113777E-001
5.227707284967230E-001  5.293463747719813E-001  5.360047324952613E-001  5.427468420485037E-001
5.495737569000427E-001  5.564865437692144E-001  5.634862827930306E-001  5.705740676949551E-001
5.777510059557988E-001  5.850182189867662E-001  5.923768423046796E-001  5.998280257094031E-001
6.073729334635033E-001  6.150127444741670E-001  6.227486524774074E-001  6.305818662245900E-001
6.385136096712989E-001  6.465451221685851E-001  6.546776586566162E-001  6.629124898607640E-001
6.712509024901591E-001  6.796941994387385E-001  6.882436999888292E-001  6.969007400172856E-001
7.056666722042250E-001  7.145428662443866E-001  7.235307090611477E-001  7.326316050232343E-001
7.418469761641564E-001  7.511782624044029E-001  7.606269217764347E-001  7.701944306525016E-001
7.798822839753307E-001  7.896919954917139E-001  7.996250979890327E-001  8.096831435347629E-001
8.198677037189835E-001  8.301803698999440E-001  8.406227534527165E-001  8.511964860209756E-001
8.619032197719489E-001  8.727446276545673E-001  8.837224036608693E-001  8.948382630906907E-001
9.060939428196817E-001  9.174912015707024E-001  9.290318201886172E-001  9.407176019185665E-001
9.525503726877219E-001  9.645319813905870E-001  9.766643001779016E-001  9.889492247491561E-001
1.001388674648811E+000  1.013984593566222E+000  1.026738949639344E+000  1.039653735762265E+000
1.052730969896590E+000  1.065972695386758E+000  1.079380981279321E+000  1.092957922646224E+000
1.106705640912184E+000  1.120626284186143E+000  1.134722027596939E+000  1.148995073633159E+000
1.163447652487281E+000  1.178082022404158E+000  1.192900470033860E+000  1.207905310788980E+000
1.223098889206416E+000  1.238483579313701E+000  1.254061784999972E+000  1.269835940391554E+000
1.285808510232324E+000  1.301981990268818E+000  1.318358907640192E+000  1.334941821273110E+000
1.351733322281559E+000  1.368736034371737E+000  1.385952614252004E+000  1.403385752047987E+000
1.421038171722941E+000  1.438912631503348E+000  1.457011924309919E+000  1.475338878193979E+000
1.493896356779355E+000  1.512687259709836E+000  1.531714523102230E+000  1.550981120005156E+000
1.570490060863581E+000  1.590244393989201E+000  1.610247206036761E+000  1.630501622486335E+000
1.651010808131704E+000  1.671777967574854E+000  1.692806345726694E+000  1.714099228314097E+000
1.735659942393283E+000  1.757491856869697E+000  1.779598383024393E+000  1.801982975047056E+000
1.824649130575735E+000  1.847600391243341E+000  1.870840343231052E+000  1.894372617828649E+000
1.918200892001910E+000  1.942328888967160E+000  1.966760378773006E+000  1.991499178889441E+000
2.016549154804317E+000  2.041914220627329E+000  2.067598339701624E+000  2.093605525223055E+000
2.119939840867276E+000  2.146605401424688E+000  2.173606373443371E+000  2.200946975880145E+000
2.228631480759757E+000  2.256664213842424E+000  2.285049555299727E+000  2.313791940399012E+000
2.342895860196434E+000  2.372365862238666E+000  2.402206551273488E+000  2.432422589969279E+000
2.463018699643550E+000  2.493999661000695E+000  2.525370314878950E+000  2.557135563006809E+000
2.589300368768926E+000  2.621869757981631E+000  2.654848819678260E+000  2.688242706904292E+000
2.722056637522549E+000  2.756295895028491E+000  2.790965829375755E+000  2.826071857812127E+000
2.861619465725965E+000  2.897614207503334E+000  2.934061707395871E+000  2.970967660399579E+000
3.008337833144710E+000  3.046178064796776E+000  3.084494267968963E+000  3.123292429645979E+000
3.162578612119509E+000  3.202358953935504E+000  3.242639670853296E+000  3.283427056816860E+000
3.324727484938242E+000  3.366547408493351E+000  3.408893361930337E+000  3.451771961890565E+000
3.495189908242523E+000  3.539153985128670E+000  3.583671062025452E+000  3.628748094816717E+000
3.674392126880535E+000  3.720610290189788E+000  3.767409806426530E+000  3.814797988110374E+000
3.862782239741134E+000  3.911370058955738E+000  3.960569037699798E+000  4.010386863413847E+000
4.060831320234491E+000  4.111910290210756E+000  4.163631754535604E+000  4.216003794793074E+000
4.269034594221014E+000  4.322732438989711E+000  4.377105719496677E+000  4.432162931677596E+000
4.487912678333903E+000  4.544363670476922E+000  4.601524728689031E+000  4.659404784501882E+000
4.718012881791936E+000  4.777358178193650E+000  4.837449946530309E+000  4.898297576262981E+000
4.959910574957616E+000  5.022298569770597E+000  5.085471308953060E+000  5.149438663374009E+000
5.214210628062724E+000  5.279797323770477E+000  5.346208998551892E+000  5.413456029366286E+000
5.481548923699020E+000  5.550498321203381E+000  5.620314995363016E+000  5.691009855175287E+000
5.762593946855888E+000  5.835078455564763E+000  5.908474707153881E+000  5.982794169936885E+000
6.058048456481022E+000  6.134249325421691E+000  6.211408683299672E+000  6.289538586421628E+000
6.368651242743890E+000  6.448759013779939E+000  6.529874416532007E+000  6.612010125446777E+000
6.695178974395890E+000  6.779393958681209E+000  6.864668237065345E+000  6.951015133827812E+000
7.038448140846875E+000  7.126980919707781E+000  7.216627303837359E+000  7.307401300665490E+000
7.399317093813888E+000  7.492389045312208E+000  7.586631697842243E+000  7.682059777010200E+000
7.778688193647574E+000  7.876532046141083E+000  7.975606622791717E+000  8.075927404203659E+000
8.177510065703125E+000  8.280370479787615E+000  8.384524718606132E+000  8.489989056470366E+000
8.596779972397687E+000  8.704914152685998E+000  8.814408493520935E+000  8.925280103616052E+000
9.037546306885970E+000  9.151224645153366E+000  9.266332880889896E+000  9.382888999991552E+000
9.500911214589106E+000  9.620417965893678E+000  9.741427927078314E+000  9.863960006195660E+000
9.988033349132342E+000  1.011366734260065E+001  1.024088161716764E+001  1.036969605032255E+001
1.050013076958266E+001  1.063220615563817E+001  1.076594284553691E+001  1.090136173590872E+001
1.103848398623077E+001  1.117733102213366E+001  1.131792453874918E+001  1.146028650410041E+001
1.160443916253402E+001  1.175040503819618E+001  1.189820693855197E+001  1.204786795794898E+001
1.219941148122601E+001  1.235286118736686E+001  1.250824105320033E+001  1.266557535714660E+001
1.282488868301071E+001  1.298620592382401E+001  1.314955228573352E+001  1.331495329194065E+001
1.348243478668915E+001  1.365202293930327E+001  1.382374424827694E+001  1.399762554541400E+001
1.417369400002093E+001  1.435197712315199E+001  1.453250277190784E+001  1.471529915378843E+001
1.490039483110029E+001  1.508781872541959E+001  1.527760012211117E+001  1.546976867490432E+001
1.566435441052645E+001  1.586138773339457E+001  1.606089943036627E+001  1.626292067555015E+001
1.646748303517673E+001  1.667461847253094E+001  1.688435935294622E+001  1.709673844886190E+001
1.731178894494383E+001  1.752954444326948E+001  1.775003896857856E+001  1.797330697358919E+001
1.819938334438141E+001  1.842830340584816E+001  1.866010292721472E+001  1.889481812762796E+001
1.913248568181541E+001  1.937314272581600E+001  1.961682686278249E+001  1.986357616885700E+001
2.011342919912068E+001  2.036642499361779E+001  2.062260308345596E+001  2.088200349698297E+001
2.114466676604112E+001  2.141063393230065E+001  2.167994655367234E+001  2.195264671080123E+001
2.222877701364174E+001  2.250838060811538E+001  2.279150118285274E+001  2.307818297601955E+001
2.336847078222928E+001  2.366240995954231E+001  2.396004643655303E+001  2.426142671956658E+001
2.456659789986528E+001  2.487560766106697E+001  2.518850428657556E+001  2.550533666712530E+001
2.582615430842032E+001  2.615100733886972E+001  2.647994651742044E+001  2.681302324148844E+001
2.715028955498938E+001  2.749179815647104E+001  2.783760240734709E+001  2.818775634023534E+001
2.854231466740022E+001  2.890133278930163E+001  2.926486680325164E+001  2.963297351217944E+001
3.000571043350727E+001  3.038313580813748E+001  3.076530860955263E+001  3.115228855303058E+001
3.154413610497472E+001  3.194091249236229E+001  3.234267971231115E+001  3.274950054176669E+001
3.316143854731131E+001  3.357855809509638E+001  3.400092436089989E+001  3.442860334031028E+001
3.486166185903807E+001  3.530016758335801E+001  3.574418903068152E+001  3.619379558026320E+001
3.664905748404120E+001  3.711004587761412E+001  3.757683279135644E+001  3.804949116167301E+001
3.852809484239589E+001  3.901271861632397E+001  3.950343820690778E+001  4.000033029008186E+001
4.050347250624499E+001  4.101294347239218E+001  4.152882279439849E+001  4.205119107945739E+001
4.258012994867634E+001  4.311572204982966E+001  4.365805107027287E+001  4.420720175001889E+001
4.476325989497851E+001  4.532631239036837E+001  4.589644721428624E+001  4.647375345145839E+001
4.705832130715900E+001  4.765024212130467E+001  4.824960838272705E+001  4.885651374362373E+001
4.947105303419220E+001  5.009332227744699E+001  5.072341870422321E+001  5.136144076836964E+001
5.200748816213170E+001  5.266166183172916E+001  5.332406399312890E+001  5.399479814801612E+001
5.467396909996733E+001  5.536168297082537E+001  5.605804721728182E+001  5.676317064766705E+001
5.747716343895144E+001  5.820013715396149E+001  5.893220475881082E+001  5.967348064055222E+001
6.042408062505046E+001  6.118412199508000E+001  6.195372350865144E+001  6.273300541756683E+001
6.352208948621000E+001  6.432109901057220E+001  6.513015883751699E+001  6.594939538428858E+001
6.677893665826394E+001  6.761891227695496E+001  6.846945348826112E+001  6.933069319097687E+001
7.020276595555825E+001  7.108580804514868E+001  7.197995743687137E+001  7.288535384338806E+001
7.380213873472906E+001  7.473045536039909E+001  7.567044877175937E+001  7.662226584469295E+001
7.758605530255410E+001  7.856196773940620E+001  7.955015564355328E+001  8.055077342136559E+001
8.156397742140679E+001  8.258992595886345E+001  8.362877934028153E+001  8.468069988861576E+001
8.574585196859165E+001  8.682440201238893E+001  8.791651854564641E+001  8.902237221379404E+001
9.014213580871767E+001  9.127598429575686E+001  9.242409484104466E+001  9.358664683918984E+001
9.476382194130697E+001  9.595580408340112E+001  9.716277951510672E+001  9.838493682879077E+001
9.962246698902020E+001
</PP_R>
<PP_RAB type="real" size="1017" columns="4">
3.799508189810485E-006  3.847300119454260E-006  3.895693197569092E-006  3.944694985671892E-006
3.994313140391749E-006  4.044555414666288E-006  4.095429658953078E-006  4.146943822456297E-006
4.199105954368794E-006  4.251924205129812E-006  4.305406827698488E-006  4.359562178843411E-006
4.414398720448376E-006  4.469925020834570E-006  4.526149756099408E-006  4.583081711472160E-006
4.640729782686680E-006  4.699102977371385E-006  4.758210416456698E-006  4.818061335600241E-006
4.878665086629894E-006  4.940031139005054E-006  5.002169081296253E-006  5.065088622683395E-006
5.128799594472837E-006  5.193311951633541E-006  5.258635774352561E-006  5.324781269610102E-006
5.391758772774367E-006  5.459578749216501E-006  5.528251795945798E-006  5.597788643265528E-006
5.668200156449558E-006  5.739497337440072E-006  5.811691326566662E-006  5.884793404287007E-006
5.958814992949477E-006  6.033767658577898E-006  6.109663112678763E-006  6.186513214071196E-006
6.264329970739885E-006  6.343125541711382E-006  6.422912238953960E-006  6.503702529301384E-006
6.585509036400904E-006  6.668344542685684E-006  6.752221991372112E-006  6.837154488482192E-006
6.923155304891392E-006  7.010237878402256E-006  7.098415815844058E-006  7.187702895198926E-006
7.278113067754666E-006  7.369660460284669E-006  7.462359377255291E-006  7.556224303060897E-006
7.651269904287114E-006  7.747511032002506E-006  7.844962724079072E-006  7.943640207541985E-006
8.043558900948789E-006  8.144734416798613E-006  8.247182563971653E-006  8.350919350199330E-006
8.455960984565559E-006  8.562323880039413E-006  8.670024656039705E-006  8.779080141031808E-006
8.889507375157117E-006  9.001323612895645E-006  9.114546325762020E-006  9.229193205035488E-006
9.345282164524181E-006  9.462831343364197E-006  9.581859108853902E-006  9.702384059323809E-006
9.824425027042639E-006  9.948001081159890E-006  1.007313153068543E-005  1.019983592750660E-005
1.032813406944316E-005  1.045804600334083E-005  1.058959202820358E-005  1.072279269836542E-005
1.085766882670208E-005  1.099424148788301E-005  1.113253202166438E-005  1.127256203622345E-005
1.141435341153487E-005  1.155792830278954E-005  1.170330914385630E-005  1.185051865078737E-005
1.199957982536768E-005  1.215051595870903E-005  1.230335063488936E-005  1.245810773463775E-005
1.261481143906590E-005  1.277348623344643E-005  1.293415691103879E-005  1.309684857696325E-005
1.326158665212361E-005  1.342839687717928E-005  1.359730531656729E-005  1.376833836257493E-005
1.394152273946363E-005  1.411688550764463E-005  1.429445406790723E-005  1.447425616570022E-005
1.465631989546720E-005  1.484067370503637E-005  1.502734640006554E-005  1.521636714854310E-005
1.540776548534555E-005  1.560157131685242E-005  1.579781492561920E-005  1.599652697510901E-005
1.619773851448388E-005  1.640148098345618E-005  1.660778621720121E-005  1.681668645133149E-005
1.702821432693361E-005  1.724240289566849E-005  1.745928562493575E-005  1.767889640310308E-005
1.790126954480142E-005  1.812643979628654E-005  1.835444234086836E-005  1.858531280440834E-005
1.881908726088611E-005  1.905580223803614E-005  1.929549472305519E-005  1.953820216838171E-005
1.978396249754783E-005  2.003281411110494E-005  2.028479589262401E-005  2.053994721477105E-005
2.079830794545924E-005  2.105991845407839E-005  2.132481961780272E-005  2.159305282797802E-005
2.186465999658910E-005  2.213968356280865E-005  2.241816649962842E-005  2.270015232057385E-005
2.298568508650322E-005  2.327480941249208E-005  2.356757047480462E-005  2.386401401795244E-005
2.416418636184226E-005  2.446813440901355E-005  2.477590565196706E-005  2.508754818058566E-005
2.540311068964849E-005  2.572264248643959E-005  2.604619349845234E-005  2.637381428119061E-005
2.670555602606826E-005  2.704147056840786E-005  2.738161039554005E-005  2.772602865500489E-005
2.807477916285611E-005  2.842791641207012E-005  2.878549558106055E-005  2.914757254230005E-005
2.951420387105052E-005  2.988544685420291E-005  3.026135949922871E-005  3.064200054324349E-005
3.102742946218474E-005  3.141770648010531E-005  3.181289257858317E-005  3.221304950625029E-005