<UPF version="2.0.1">
<PP_INFO>
Generated in analytical, separable form
Author: Goedecker/Hartwigsen/Hutter/Teter
Generation date: Phys.Rev.B58, 3641 (1998); B54, 1703 (1996)
Pseudopotential type: NC
Element: Na
Functional: SLA-PZ-NOGX-NOGC

Suggested minimum cutoff for wavefunctions:   0. Ry
Suggested minimum cutoff for charge density:   0. Ry
The Pseudo was generated with a Scalar-Relativistic Calculation
Local Potential: unknown format, L component and cutoff radius: -3   0.0000

Valence configuration:
nl pn  l   occ       Rcut    Rcut US       E pseu

Generation configuration: not available.
Converted from CPMD format using cpmd2upf v.5.0.1 - PG 10Jul2012
Contains atomic orbitals generated by ld1.x - use with care
</PP_INFO>
<!--                               -->
<!-- END OF HUMAN READABLE SECTION -->
<!--                               -->
<PP_HEADER generated="Generated in analytical, separable form"
author="Goedecker/Hartwigsen/Hutter/Teter"
date="Phys.Rev.B58, 3641 (1998); B54, 1703 (1996)"
comment="Contains atomic orbitals generated by ld1.x - use with care"
element="Na"
pseudo_type="NC"
relativistic="scalar"
is_ultrasoft="F"
is_paw="F"
is_coulomb="F"
has_so="F"
has_wfc="F"
has_gipaw="F"
paw_as_gipaw="F"
core_correction="F"
functional="SLA-PZ-NOGX-NOGC"
z_valence="1.000000000000000E+000"
total_psenergy="0.000000000000000E+000"
wfc_cutoff="0.000000000000000E+000"
rho_cutoff="0.000000000000000E+000"
l_max="1"
l_max_rho="0"
l_local="-3"
mesh_size="1121"
number_of_wfc=" 3"
number_of_proj="3"/>
<PP_MESH dx="1.250000000000000E-002" mesh="1121" xmin="-7.000000000000000E+000" rmax="9.969392349349623E+001"
zmesh="1.100000000000000E+001">
<PP_R type="real" size="1121" columns="4">
8.289836050495602E-005  8.394109351536566E-005  8.499694249241656E-005  8.606607241465945E-005
8.714865033581999E-005  8.824484541090081E-005  8.935482892261261E-005  9.047877430813739E-005
9.161685718622822E-005  9.276925538465042E-005  9.393614896796701E-005  9.511772026567441E-005
9.631415390069183E-005  9.752563681820880E-005  9.875235831489617E-005  9.999451006848348E-005
1.012522861677094E-004  1.025258831426484E-004  1.038154999954189E-004  1.051213382312780E-004
1.064436018901068E-004  1.077824975782921E-004  1.091382345010092E-004  1.105110244949104E-004
1.119010820612255E-004  1.133086243992772E-004  1.147338714404195E-004  1.161770458824022E-004
1.176383732241680E-004  1.191180818010873E-004  1.206164028206356E-004  1.221335703985206E-004
1.236698215952631E-004  1.252253964532379E-004  1.268005380341817E-004  1.283954924571710E-004
1.300105089370795E-004  1.316458398235178E-004  1.333017406402639E-004  1.349784701251897E-004
1.366762902706884E-004  1.383954663646120E-004  1.401362670317228E-004  1.418989642756666E-004
1.436838335214743E-004  1.454911536585968E-004  1.473212070844824E-004  1.491742797487024E-004
1.510506611976304E-004  1.529506446196856E-004  1.548745268911431E-004  1.568226086225220E-004
1.587951942055563E-004  1.607925918607564E-004  1.628151136855700E-004  1.648630757031468E-004
1.669367979117188E-004  1.690366043346001E-004  1.711628230708161E-004  1.733157863463706E-004
1.754958305661554E-004  1.777032963665152E-004  1.799385286684724E-004  1.822018767316217E-004
1.844936942087031E-004  1.868143392008599E-004  1.891641743135936E-004  1.915435667134213E-004
1.939528881852462E-004  1.963925151904504E-004  1.988628289257168E-004  2.013642153825924E-004
2.038970654078003E-004  2.064617747643097E-004  2.090587441931760E-004  2.116883794761558E-004
2.143510914991121E-004  2.170472963162158E-004  2.197774152149549E-004  2.225418747819621E-004
2.253411069696690E-004  2.281755491637999E-004  2.310456442517144E-004  2.339518406916091E-004
2.368945925825907E-004  2.398743597356292E-004  2.428916077454046E-004  2.459468080630570E-004
2.490404380698517E-004  2.521729811517717E-004  2.553449267750466E-004  2.585567705626334E-004
2.618090143716584E-004  2.651021663718334E-004  2.684367411248588E-004  2.718132596648236E-004
2.752322495796196E-004  2.786942450933766E-004  2.821997871499372E-004  2.857494234973800E-004
2.893437087736061E-004  2.929832045930024E-004  2.966684796341953E-004  3.004001097289075E-004
3.041786779519338E-004  3.080047747122465E-004  3.118789978452486E-004  3.158019527061867E-004
3.197742522647389E-004  3.237965172007936E-004  3.278693760014300E-004  3.319934650591221E-004
3.361694287711756E-004  3.403979196404164E-004  3.446795983771461E-004  3.490151340023785E-004
3.534052039523755E-004  3.578504941844985E-004  3.623516992843901E-004  3.669095225745053E-004
3.715246762240061E-004  3.761978813600397E-004  3.809298681804163E-004  3.857213760677037E-004
3.905731537047581E-004  3.954859591917063E-004  4.004605601644005E-004  4.054977339143638E-004
4.105982675102423E-004  4.157629579207884E-004  4.209926121393860E-004  4.262880473101465E-004
4.316500908555889E-004  4.370795806059260E-004  4.425773649299785E-004  4.481443028677320E-004
4.537812642645652E-004  4.594891299071649E-004  4.652687916611501E-004  4.711211526104295E-004
4.770471271983077E-004  4.830476413703705E-004  4.891236327191655E-004  4.952760506307022E-004
5.015058564327974E-004  5.078140235452818E-004  5.142015376321008E-004  5.206693967553259E-004
5.272186115311037E-004  5.338502052875684E-004  5.405652142247358E-004  5.473646875764145E-004
5.542496877741489E-004  5.612212906132274E-004  5.682805854207783E-004  5.754286752259770E-004
5.826666769323985E-004  5.899957214925352E-004  5.974169540845102E-004  6.049315342910158E-004
6.125406362804970E-004  6.202454489906207E-004  6.280471763140484E-004  6.359470372865465E-004
6.439462662774660E-004  6.520461131826090E-004  6.602478436195355E-004  6.685527391253124E-004
6.769620973567580E-004  6.854772322932069E-004  6.940994744418147E-004  7.028301710454610E-004
7.116706862932521E-004  7.206224015336813E-004  7.296867154904692E-004  7.388650444811101E-004
7.481588226381845E-004  7.575695021334372E-004  7.670985534046846E-004  7.767474653855769E-004
7.865177457382394E-004  7.964109210888571E-004  8.064285372662053E-004  8.165721595431924E-004
8.268433728814386E-004  8.372437821789219E-004  8.477750125207569E-004  8.584387094331101E-004
8.692365391403186E-004  8.801701888252448E-004  8.912413668928934E-004  9.024518032373647E-004
9.138032495121442E-004  9.252974794038062E-004  9.369362889091591E-004  9.487214966158640E-004
9.606549439866049E-004  9.727384956468116E-004  9.849740396760138E-004  9.973634879028625E-004
1.009908776203846E-003  1.022611864805788E-003  1.035474738592125E-003  1.048499407413056E-003
1.061687906399587E-003  1.075042296281511E-003  1.088564663709420E-003  1.102257121580736E-003
1.116121809369858E-003  1.130160893462463E-003  1.144376567494000E-003  1.158771052692461E-003
1.173346598225443E-003  1.188105481551589E-003  1.203050008776449E-003  1.218182515012803E-003
1.233505364745540E-003  1.249020952201104E-003  1.264731701721602E-003  1.280640068143612E-003
1.296748537181751E-003  1.313059625817080E-003  1.329575882690384E-003  1.346299888500400E-003
1.363234256407065E-003  1.380381632439813E-003  1.397744695911039E-003  1.415326159834735E-003
1.433128771350408E-003  1.451155312152329E-003  1.469408598924170E-003  1.487891483779130E-003
1.506606854705569E-003  1.525557636018269E-003  1.544746788815371E-003  1.564177311441035E-003
1.583852239953956E-003  1.603774648601742E-003  1.623947650301276E-003  1.644374397125119E-003
1.665058080794016E-003  1.686001933175626E-003  1.707209226789492E-003  1.728683275318387E-003
1.750427434126085E-003  1.772445100781636E-003  1.794739715590253E-003  1.817314762130857E-003
1.840173767800399E-003  1.863320304365024E-003  1.886757988518158E-003  1.910490482445639E-003
1.934521494397925E-003  1.958854779269525E-003  1.983494139185707E-003  2.008443424096586E-003
2.033706532378691E-003  2.059287411444088E-003  2.085190058357176E-003  2.111418520459234E-003
2.137976896000828E-003  2.164869334782171E-003  2.192100038801534E-003  2.219673262911821E-003
2.247593315485400E-003  2.275864559087286E-003  2.304491411156813E-003  2.333478344697857E-003
2.362829888977759E-003  2.392550630235028E-003  2.422645212395953E-003  2.453118337800226E-003
2.483974767935688E-003  2.515219324182325E-003  2.546856888565620E-003  2.578892404519373E-003
2.611330877658130E-003  2.644177376559316E-003  2.677437033555208E-003  2.711115045534883E-003
2.745216674756227E-003  2.779747249668191E-003  2.814712165743354E-003  2.850116886320990E-003
2.885966943460723E-003  2.922267938806915E-003  2.959025544463948E-003  2.996245503882488E-003
3.033933632756916E-003  3.072095819934051E-003  3.110738028333275E-003  3.149866295878275E-003
3.189486736440458E-003  3.229605540794270E-003  3.270228977584515E-003  3.311363394305840E-003
3.353015218294547E-003  3.395190957732875E-003  3.437897202665917E-003  3.481140626031333E-003
3.524927984702001E-003  3.569266120541802E-003  3.614161961474665E-003  3.659622522567077E-003
3.705654907124202E-003  3.752266307799777E-003  3.799464007719992E-003  3.847255381621483E-003
3.895647897003654E-003  3.944649115295489E-003  3.994266693037038E-003  4.044508383075775E-003
4.095382035777984E-003  4.146895600255400E-003  4.199057125607284E-003  4.251874762178089E-003
4.305356762830993E-003  4.359511484237407E-003  4.414347388182725E-003  4.469873042888508E-003
4.526097124351268E-003  4.583028417698125E-003  4.640675818559492E-003  4.699048334459038E-003
4.758155086221126E-003  4.818005309395982E-003  4.878608355702739E-003  4.939973694490681E-003
5.002110914218842E-003  5.065029723954218E-003  5.128739954888850E-003  5.193251561875936E-003
5.258574624985316E-003  5.324719351078505E-003  5.391696075403520E-003  5.459515263209813E-003
5.528187511383452E-003  5.597723550102931E-003  5.668134244515769E-003  5.739430596436216E-003
5.811623746064324E-003  5.884724973726596E-003  5.958745701638579E-003  6.033697495689604E-003
6.109592067249978E-003  6.186441275000927E-003  6.264257126787507E-003  6.343051781494879E-003
6.422837550948148E-003  6.503626901836110E-003  6.585432457659223E-003  6.668267000702013E-003
6.752143474030355E-003  6.837074983513857E-003  6.923074799873666E-003  7.010156360756065E-003
7.098333272832106E-003  7.187619313923699E-003  7.278028435156417E-003  7.369574763139385E-003
7.462272602172618E-003  7.556136436482051E-003  7.651180932482764E-003  7.747420941070626E-003
7.844871499942773E-003  7.943547835947308E-003  8.043465367462484E-003  8.144639706805883E-003
8.247086662673868E-003  8.350822242611718E-003  8.455862655514863E-003  8.562224314161516E-003
8.669923837777241E-003  8.778978054631716E-003  8.889404004668186E-003  9.001218942166028E-003
9.114440338436704E-003  9.229085884553736E-003  9.345173494116949E-003  9.462721306051513E-003
9.581747687442212E-003  9.702271236403291E-003  9.824310784984483E-003  9.947885402113544E-003
1.007301439657582E-002  1.019971732003125E-002  1.032801397006943E-002  1.045792439330295E-002
1.058946888849973E-002  1.072266800975478E-002  1.085754256970178E-002  1.099411364276515E-002
1.113240256845290E-002  1.127243095469103E-002  1.141422068119976E-002  1.155779390291233E-002
1.170317305343675E-002  1.185038084856106E-002  1.199944028980275E-002  1.215037466800277E-002
1.230320756696479E-002  1.245796286714023E-002  1.261466474935957E-002  1.277333769861074E-002
1.293400650786488E-002  1.309669628195030E-002  1.326143244147522E-002  1.342824072679971E-002
1.359714720205774E-002  1.376817825922970E-002  1.394136062226622E-002  1.411672135126391E-002
1.429428784669342E-002  1.447408785368094E-002  1.465614946634335E-002  1.484050113217804E-002
1.502717165650787E-002  1.521619020698205E-002  1.540758631813365E-002  1.560138989599444E-002
1.579763122276774E-002  1.599634096156014E-002  1.619755016117259E-002  1.640129026095190E-002
1.660759309570316E-002  1.681649090066403E-002  1.702801631654155E-002  1.724220239461230E-002
1.745908260188675E-002  1.767869082633852E-002  1.790106138219946E-002  1.812622901532138E-002
1.835422890860504E-002  1.858509668749764E-002  1.881886842555934E-002  1.905558065009980E-002
1.929527034788574E-002  1.953797497092006E-002  1.978373244229391E-002  2.003258116211218E-002
2.028456001349362E-002  2.053970836864644E-002  2.079806609502023E-002  2.105967356153535E-002
2.132457164489071E-002  2.159280173595074E-002  2.186440574621292E-002  2.213942611435643E-002
2.241790581287333E-002  2.269988835478307E-002  2.298541780043150E-002  2.327453876437546E-002
2.356729642235378E-002  2.386373651834613E-002  2.416390537172062E-002  2.446784988447126E-002
2.477561754854660E-002  2.508725645327029E-002  2.540281529285522E-002  2.572234337401209E-002
2.604589062365364E-002  2.637350759669594E-002  2.670524548395754E-002  2.704115612015825E-002
2.738129199201839E-002  2.772570624645994E-002  2.807445269891090E-002  2.842758584171399E-002
2.878516085264122E-002  2.914723360351553E-002  2.951386066894088E-002  2.988509933514220E-002
3.026100760891633E-002  3.064164422669586E-002  3.102706866372672E-002  3.141734114336132E-002
3.181252264646867E-002  3.221267492096262E-002  3.261786049145016E-002  3.302814266900105E-002
3.344358556104021E-002  3.386425408136482E-002  3.429021396028700E-002  3.472153175490447E-002
3.515827485950013E-002  3.560051151607264E-002  3.604831082499936E-002  3.650174275583334E-002
3.696087815823630E-002  3.742578877304898E-002  3.789654724350076E-002  3.837322712656050E-002
3.885590290442971E-002  3.934464999618068E-002  3.983954476954087E-002  4.034066455282544E-002
4.084808764702015E-002  4.136189333801579E-002  4.188216190899691E-002  4.240897465298624E-002
4.294241388554679E-002  4.348256295764402E-002  4.402950626866933E-002  4.458332927962785E-002
4.514411852649181E-002  4.571196163372190E-002  4.628694732795902E-002  4.686916545188766E-002
4.745870697827421E-002  4.805566402418161E-002  4.866012986536275E-002  4.927219895083521E-002
4.989196691763878E-002  5.051953060577925E-002  5.115498807335965E-002  5.179843861190209E-002
5.244998276186243E-002  5.310972232833964E-002  5.377776039698322E-002  5.445420135010053E-002
5.513915088296668E-002  5.583271602033981E-002  5.653500513318366E-002  5.724612795560094E-002
5.796619560197944E-002  5.869532058435382E-002  5.943361682998613E-002  6.018119969916675E-002
6.093818600323997E-002  6.170469402285590E-002  6.248084352645202E-002  6.326675578896747E-002
6.406255361079215E-002  6.486836133695481E-002  6.568430487655207E-002  6.651051172242198E-002
6.734711097106527E-002  6.819423334281655E-002  6.905201120226991E-002  6.992057857896100E-002
7.080007118830954E-002  7.169062645282516E-002  7.259238352357976E-002  7.350548330195027E-002
7.443006846163477E-002  7.536628347094548E-002  7.631427461538250E-002  7.727419002049077E-002
7.824617967500530E-002  7.923039545428713E-002  8.022699114405413E-002  8.123612246441053E-002
8.225794709417816E-002  8.329262469553438E-002  8.434031693895941E-002  8.540118752849780E-002
8.647540222733764E-002  8.756312888371111E-002  8.866453745712120E-002  8.977980004489837E-002
9.090909090909091E-002  9.205258650369406E-002  9.321046550222084E-002  9.438290882562050E-002
9.557009967054771E-002  9.677222353798721E-002  9.798946826223925E-002  9.922202404026836E-002
1.004700834614226E-001  1.017338415375256E-001  1.030134957333479E-001  1.043092459974611E-001
1.056212947934803E-001  1.069498471316992E-001  1.082951106011235E-001  1.096572954019073E-001
1.110366143781973E-001  1.124332830513896E-001  1.138475196538059E-001  1.152795451627928E-001
1.167295833352492E-001  1.181978607425901E-001  1.196846068061475E-001  1.211900538330185E-001
1.227144370523640E-001  1.242579946521633E-001  1.258209678164320E-001  1.274036007629067E-001
1.290061407812053E-001  1.306288382714660E-001  1.322719467834728E-001  1.339357230562742E-001
1.356204270582974E-001  1.373263220279703E-001  1.390536745148527E-001  1.408027544212848E-001
1.425738350445608E-001  1.443671931196313E-001  1.461831088623440E-001  1.480218660132283E-001
1.498837518818298E-001  1.517690573916039E-001  1.536780771253720E-001  1.556111093713514E-001
1.575684561697633E-001  1.595504233600271E-001  1.615573206285490E-001  1.635894615571099E-001
1.656471636718646E-001  1.677307484929546E-001  1.698405415847475E-001  1.719768726067064E-001
1.741400753648997E-001  1.763304878641596E-001  1.785484523608953E-001  1.807943154165720E-001
1.830684279518615E-001  1.853711453014742E-001  1.877028272696807E-001  1.900638381865325E-001
1.924545469647886E-001  1.948753271575600E-001  1.973265570166766E-001  1.998086195517912E-001
2.023219025902245E-001  2.048667988375644E-001  2.074437059390276E-001  2.100530265415913E-001
2.126951683569084E-001  2.153705442250129E-001  2.180795721788271E-001  2.208226755094808E-001
2.236002828324501E-001  2.264128281545302E-001  2.292607509416500E-001  2.321444961875388E-001
2.350645144832588E-001  2.380212620876092E-001  2.410152009984189E-001  2.440467990247338E-001
2.471165298599132E-001  2.502248731556461E-001  2.533723145968956E-001  2.565593459777908E-001
2.597864652784696E-001  2.630541767428874E-001  2.663629909576095E-001  2.697134249315881E-001
2.731060021769484E-001  2.765412527907878E-001  2.800197135380028E-001  2.835419279351632E-001
2.871084463354335E-001  2.907198260145704E-001  2.943766312579967E-001  2.980794334489703E-001
3.018288111578683E-001  3.056253502325846E-001  3.094696438900744E-001  3.133622928090434E-001
3.173039052238038E-001  3.212950970193157E-001  3.253364918274164E-001  3.294287211242674E-001
3.335724243290224E-001  3.377682489037367E-001  3.420168504545377E-001  3.463188928340602E-001
3.506750482451794E-001  3.550859973460413E-001  3.595524293564161E-001  3.640750421653935E-001
3.686545424404251E-001  3.732916457377465E-001  3.779870766141828E-001  3.827415687403600E-001
3.875558650153474E-001  3.924307176827313E-001  3.973668884481597E-001  4.023651485983580E-001
4.074262791216423E-001  4.125510708299552E-001  4.177403244824264E-001  4.229948509104972E-001
4.283154711446132E-001  4.337030165425093E-001  4.391583289191167E-001  4.446822606780915E-001
4.502756749450103E-001  4.559394457022330E-001  4.616744579254620E-001  4.674816077220265E-001
4.733618024708955E-001  4.793159609644627E-001  4.853450135521072E-001  4.914499022855606E-001
4.976315810661096E-001  5.038910157936386E-001  5.102291845175595E-001  5.166470775896316E-001
5.231456978187028E-001  5.297260606274072E-001  5.363891942108198E-001  5.431361396971202E-001
5.499679513102682E-001  5.568856965347261E-001  5.638904562822611E-001  5.709833250608333E-001
5.781654111456208E-001  5.854378367521876E-001  5.928017382118284E-001  6.002582661491304E-001
6.078085856617520E-001  6.154538765024794E-001  6.231953332635620E-001  6.310341655633669E-001
6.389715982353910E-001  6.470088715196360E-001  6.551472412564059E-001  6.633879790825307E-001
6.717323726300591E-001  6.801817257274624E-001  6.887373586033498E-001  6.974006080927662E-001
7.061728278460707E-001  7.150553885404447E-001  7.240496780940709E-001  7.331571018829887E-001
7.423790829606951E-001  7.517170622804976E-001  7.611724989206604E-001  7.707468703123983E-001
7.804416724707178E-001  7.902584202281819E-001  8.001986474716012E-001  8.102639073817034E-001
8.204557726758300E-001  8.307758358536662E-001  8.412257094460809E-001  8.518070262670850E-001
8.625214396689569E-001  8.733706238005919E-001  8.843562738690807E-001  8.954801064045982E-001
9.067438595286116E-001  9.181492932254595E-001  9.296981896173645E-001  9.413923532428814E-001
9.532336113388701E-001  9.652238141260010E-001  9.773648350978504E-001  9.896585713136500E-001
1.002106943694691E+000  1.014711897324488E+000  1.027475401752690E+000  1.040399451302829E+000
1.053486065383946E+000  1.066737288806110E+000  1.080155192099945E+000  1.093741871840140E+000
1.107499450973043E+000  1.121430079148388E+000  1.135535933055165E+000  1.149819216761747E+000
1.164282162060277E+000  1.178927028815376E+000  1.193756105317275E+000  1.208771708639344E+000
1.223976185000155E+000  1.239371910130070E+000  1.254961289642463E+000  1.270746759409604E+000
1.286730785943255E+000  1.302915866780086E+000  1.319304530871902E+000  1.335899338980813E+000
1.352702884079350E+000  1.369717791755617E+000  1.386946720623562E+000  1.404392362738366E+000
1.422057444017107E+000  1.439944724664676E+000  1.458056999605061E+000  1.476397098918078E+000
1.494967888281551E+000  1.513772269419104E+000  1.532813180553550E+000  1.552093596865987E+000
1.571616530960697E+000  1.591385033335845E+000  1.611402192860149E+000  1.631671137255514E+000
1.652195033585733E+000  1.672977088751370E+000  1.694020549990820E+000  1.715328705387717E+000
1.736904884384697E+000  1.758752458303620E+000  1.780874840872365E+000  1.803275488758212E+000
1.825957902107970E+000  1.848925625094875E+000  1.872182246472367E+000  1.895731400134858E+000
1.919576765685512E+000  1.943722069011213E+000  1.968171082864734E+000  1.992927627454225E+000
2.017995571040151E+000  2.043378830539693E+000  2.069081372138794E+000  2.095107211911873E+000
2.121460416449338E+000  2.148145103493023E+000  2.175165442579559E+000  2.202525655691907E+000
2.230230017919034E+000  2.258282858123895E+000  2.286688559619854E+000  2.315451560855554E+000
2.344576356108460E+000  2.374067496187090E+000  2.403929589142073E+000  2.434167300986196E+000
2.464785356423446E+000  2.495788539587282E+000  2.527181694788154E+000  2.558969727270423E+000
2.591157603978847E+000  2.623750354334640E+000  2.656753071021358E+000  2.690170910780635E+000
2.724009095217911E+000  2.758272911618360E+000  2.792967713772994E+000  2.828098922815242E+000
2.863672028067997E+000  2.899692587901318E+000  2.936166230600975E+000  2.973098655247834E+000
3.010495632608392E+000  3.048363006036451E+000  3.086706692386141E+000  3.125532682936475E+000
3.164847044327459E+000  3.204655919508049E+000  3.244965528695992E+000  3.285782170349721E+000
3.327112222152549E+000  3.368962142009145E+000  3.411338469054636E+000  3.454247824676346E+000
3.497696913548376E+000  3.541692524679275E+000  3.586241532472778E+000  3.631350897801994E+000
3.677027669097039E+000  3.723278983446346E+000  3.770112067711892E+000  3.817534239658364E+000
3.865552909096617E+000  3.914175579041451E+000  3.963409846883955E+000  4.013263405578662E+000
4.063744044845532E+000  4.114859652387160E+000  4.166618215121229E+000  4.219027820428452E+000
4.272096657416305E+000  4.325833018198519E+000  4.380245299190801E+000  4.435342002422769E+000
4.491131736866381E+000  4.547623219781165E+000  4.604825278076242E+000  4.662746849689610E+000
4.721396984984681E+000  4.780784848164405E+000  4.840919718703245E+000  4.901810992797052E+000
4.963468184831294E+000  5.025900928867681E+000  5.089118980149468E+000  5.153132216625806E+000
5.217950640495112E+000  5.283584379767999E+000  5.350043689849769E+000  5.417338955142817E+000
5.485480690669278E+000  5.554479543713943E+000  5.624346295487990E+000  5.695091862813538E+000
5.766727299829395E+000  5.839263799718359E+000  5.912712696456092E+000  5.987085466582155E+000
6.062393730993201E+000  6.138649256758741E+000  6.215863958959838E+000  6.294049902550785E+000
6.373219304244350E+000  6.453384534420630E+000  6.534558119059915E+000  6.616752741699977E+000
6.699981245417804E+000  6.784256634836447E+000  6.869592078156971E+000  6.956000909215990E+000
7.043496629569179E+000  7.132092910600832E+000  7.221803595660121E+000  7.312642702224119E+000
7.404624424088013E+000  7.497763133583010E+000  7.592073383821934E+000  7.687569910973273E+000
7.784267636563697E+000  7.882181669809537E+000  7.981327309977720E+000  8.081720048776212E+000
8.183375572774709E+000  8.286309765855677E+000  8.390538711696172E+000  8.496078696281067E+000
8.602946210447650E+000  8.711157952462443E+000  8.820730830630312E+000  8.931681965936370E+000
9.044028694721268E+000  9.157788571389920E+000  9.272979371154518E+000  9.389619092811897E+000
9.507725961555838E+000  9.627318431824911E+000  9.748415190185868E+000  9.871035158253600E+000
9.995197495647600E+000  1.012092160298567E+001  1.024822712491539E+001  1.037713395318355E+001
1.050766222974433E+001  1.063983234990654E+001  1.077366496552030E+001  1.090918098820414E+001
1.104640159261227E+001  1.118534821974332E+001  1.132604258029050E+001  1.146850665803383E+001
1.161276271327537E+001  1.175883328631718E+001  1.190674120098351E+001  1.205650956818697E+001
1.220816178953959E+001  1.236172156100956E+001  1.251721287662352E+001  1.267466003221592E+001
1.283408762922518E+001  1.299552057853764E+001  1.315898410438010E+001  1.332450374826102E+001
1.349210537296151E+001  1.366181516657645E+001  1.383365964660633E+001  1.400766566410081E+001
1.418386040785410E+001  1.436227140865341E+001  1.454292654358061E+001  1.472585404036803E+001
1.491108248180927E+001  1.509864081022510E+001  1.528855833198595E+001  1.548086472209101E+001
1.567559002880494E+001  1.587276467835313E+001  1.607241947967568E+001  1.627458562924151E+001
1.647929471592285E+001  1.668657872593091E+001  1.689647004781403E+001  1.710900147751823E+001
1.732420622351182E+001  1.754211791197423E+001  1.776277059205009E+001  1.798619874116961E+001
1.821243727043562E+001  1.844152153007863E+001  1.867348731498031E+001  1.890837087026642E+001
1.914620889697043E+001  1.938703855776782E+001  1.963089748278310E+001  1.987782377546947E+001
2.012785601856247E+001  2.038103328010884E+001  2.063739511957074E+001  2.089698159400717E+001
2.115983326433293E+001  2.142599120165624E+001  2.169549699369635E+001  2.196839275128152E+001
2.224472111492912E+001  2.252452526150821E+001  2.280784891098587E+001  2.309473633325884E+001
2.338523235507045E+001  2.367938236701516E+001  2.397723233063084E+001  2.427882878558020E+001
2.458421885692300E+001  2.489345026247914E+001  2.520657132028491E+001  2.552363095614269E+001
2.584467871126554E+001  2.616976475001849E+001  2.649893986775638E+001  2.683225549876112E+001
2.716976372427823E+001  2.751151728065453E+001  2.785756956757860E+001  2.820797465642422E+001
2.856278729869947E+001  2.892206293460164E+001  2.928585770167969E+001  2.965422844360621E+001
3.002723271905899E+001  3.040492881071500E+001  3.078737573435705E+001  3.117463324809495E+001
3.156676186170319E+001  3.196382284607535E+001  3.236587824279810E+001  3.277299087384525E+001
3.318522435139354E+001  3.360264308776266E+001  3.402531230547929E+001  3.445329804746869E+001
3.488666718737384E+001  3.532548744000444E+001  3.576982737191786E+001  3.621975641213236E+001
3.667534486297592E+001  3.713666391107096E+001  3.760378563845716E+001  3.807678303385494E+001
3.855573000406951E+001  3.904070138553945E+001  3.953177295602988E+001  4.002902144647263E+001
4.053252455295614E+001  4.104236094886505E+001  4.155861029717354E+001  4.208135326289269E+001
4.261067152567427E+001  4.314664779257390E+001  4.368936581097358E+001  4.423891038166793E+001
4.479536737211425E+001  4.535882372984928E+001  4.592936749607541E+001  4.650708781941675E+001
4.709207496984927E+001  4.768442035280550E+001  4.828421652345646E+001  4.889155720117431E+001
4.950653728417540E+001  5.012925286434898E+001  5.075980124227146E+001  5.139828094240956E+001
5.204479172851563E+001  5.269943461921513E+001  5.336231190379171E+001  5.403352715816984E+001
5.471318526109838E+001  5.540139241053892E+001  5.609825614025851E+001  5.680388533663281E+001
5.751839025565946E+001  5.824188254018554E+001  5.897447523735264E+001  5.971628281625998E+001
6.046742118585107E+001  6.122800771302450E+001  6.199816124097232E+001  6.277800210775040E+001
6.356765216508052E+001  6.436723479739085E+001  6.517687494109454E+001  6.599669910411103E+001
6.682683538563400E+001  6.766741349614610E+001  6.851856477768739E+001  6.938042222437743E+001
7.025312050319545E+001  7.113679597502333E+001  7.203158671595109E+001  7.293763253885264E+001
7.385507501523126E+001  7.478405749734021E+001  7.572472514058262E+001  7.667722492619123E+001
7.764170568419560E+001  7.861831811667652E+001  7.960721482131326E+001  8.060855031522811E+001
8.162248105912894E+001  8.264916548175748E+001  8.368876400464373E+001  8.474143906717167E+001
8.580735515196180E+001  8.688667881057069E+001  8.797957868951606E+001  8.908622555662765E+001
9.020679232772966E+001  9.134145409366016E+001  9.249038814762829E+001  9.365377401291762E+001
9.483179347093673E+001  9.602463058962229E+001  9.723247175220128E+001  9.845550568631238E+001
9.969392349349623E+001
</PP_R>
<PP_RAB type="real" size="1121" columns="4">
1.036229506311950E-006  1.049263668942071E-006  1.062461781155207E-006  1.075825905183243E-006
1.089358129197750E-006  1.103060567636260E-006  1.116935361532658E-006  1.130984678851717E-006
1.145210714827853E-006  1.159615692308130E-006  1.174201862099588E-006  1.188971503320930E-006
1.203926923758648E-006  1.219070460227610E-006  1.234404478936202E-006  1.249931375856044E-006
1.265653577096367E-006  1.281573539283105E-006  1.297693749942736E-006  1.314016727890975E-006
1.330545023626335E-006  1.347281219728651E-006  1.364227931262615E-006  1.381387806186380E-006
1.398763525765319E-006  1.416357804990965E-006  1.434173393005244E-006  1.452213073530028E-006
1.470479665302100E-006  1.488976022513591E-006  1.507705035257945E-006  1.526669629981508E-006
1.545872769940788E-006  1.565317455665474E-006  1.585006725427271E-006  1.604943655714638E-006
1.625131361713494E-006  1.645572997793972E-006  1.666271758003299E-006  1.687230876564871E-006
1.708453628383605E-006  1.729943329557650E-006  1.751703337896535E-006  1.773737053445832E-006
1.796047919018429E-006  1.818639420732460E-006  1.841515088556031E-006  1.864678496858780E-006
1.888133264970380E-006  1.911883057746070E-006  1.935931586139289E-006  1.960282607781525E-006
1.984939927569454E-006  2.009907398259455E-006  2.035188921069625E-006  2.060788446289335E-006
2.086709973896486E-006  2.112957554182501E-006  2.139535288385202E-006  2.166447329329632E-006
2.193697882076942E-006  2.221291204581440E-006  2.249231608355905E-006  2.277523459145272E-006
2.306171177608789E-006  2.335179240010749E-006  2.364552178919920E-006  2.394294583917766E-006