<UPF version="2.0.1">
<PP_INFO>
Generated in analytical, separable form
Author: Goedecker/Hartwigsen/Hutter/Teter
Generation date: Phys.Rev.B58, 3641 (1998); B54, 1703 (1996)
Pseudopotential type: NC
Element: Ne
Functional: SLA-PZ-NOGX-NOGC

Suggested minimum cutoff for wavefunctions:   0. Ry
Suggested minimum cutoff for charge density:   0. Ry
The Pseudo was generated with a Scalar-Relativistic Calculation
Local Potential: unknown format, L component and cutoff radius: -3   0.0000

Valence configuration:
nl pn  l   occ       Rcut    Rcut US       E pseu

Generation configuration: not available.
Converted from CPMD format using cpmd2upf v.5.0.1 - PG 10Jul2012
Contains atomic orbitals generated by ld1.x - use with care
</PP_INFO>
<!--                               -->
<!-- END OF HUMAN READABLE SECTION -->
<!--                               -->
<PP_HEADER generated="Generated in analytical, separable form"
author="Goedecker/Hartwigsen/Hutter/Teter"
date="Phys.Rev.B58, 3641 (1998); B54, 1703 (1996)"
comment="Contains atomic orbitals generated by ld1.x - use with care"
element="Ne"
pseudo_type="NC"
relativistic="scalar"
is_ultrasoft="F"
is_paw="F"
is_coulomb="F"
has_so="F"
has_wfc="F"
has_gipaw="F"
paw_as_gipaw="F"
core_correction="F"
functional="SLA-PZ-NOGX-NOGC"
z_valence="8.000000000000000E+000"
total_psenergy="0.000000000000000E+000"
wfc_cutoff="0.000000000000000E+000"
rho_cutoff="0.000000000000000E+000"
l_max="1"
l_max_rho="0"
l_local="-3"
mesh_size="1113"
number_of_wfc=" 2"
number_of_proj="3"/>
<PP_MESH dx="1.250000000000000E-002" mesh="1113" xmin="-7.000000000000000E+000" rmax="9.922747156050262E+001"
zmesh="1.000000000000000E+001">
<PP_R type="real" size="1113" columns="4">
9.118819655545162E-005  9.233520286690222E-005  9.349663674165822E-005  9.467267965612540E-005
9.586351536940198E-005  9.706932995199089E-005  9.829031181487387E-005  9.952665173895113E-005
1.007785429048510E-004  1.020461809231155E-004  1.033297638647637E-004  1.046294922922418E-004
1.059455692907610E-004  1.072782005000297E-004  1.086275941463858E-004  1.099939610753318E-004
1.113775147844803E-004  1.127784714569132E-004  1.141970499949607E-004  1.156334720544058E-004
1.170879620791174E-004  1.185607473361213E-004  1.200520579511101E-004  1.215621269444015E-004
1.230911902673481E-004  1.246394868392049E-004  1.262072585844614E-004  1.277947504706424E-004
1.294022105465848E-004  1.310298899811960E-004  1.326780431026992E-004  1.343469274383727E-004
1.360368037547894E-004  1.377479360985617E-004  1.394805918375999E-004  1.412350417028882E-004
1.430115598307874E-004  1.448104238058696E-004  1.466319147042903E-004  1.484763171377087E-004
1.503439192977572E-004  1.522350130010732E-004  1.541498937348950E-004  1.560888607032332E-004
1.580522168736217E-004  1.600402690244564E-004  1.620533277929307E-004  1.640917077235726E-004
1.661557273173934E-004  1.682457090816541E-004  1.703619795802574E-004  1.725048694847742E-004
1.746747136261120E-004  1.768718510468321E-004  1.790966250541270E-004  1.813493832734615E-004
1.836304777028907E-004  1.859402647680601E-004  1.882791053778977E-004  1.906473649810077E-004
1.930454136227709E-004  1.954736260031667E-004  1.979323815353197E-004  2.004220644047839E-004
2.029430636295734E-004  2.054957731209459E-004  2.080805917449529E-004  2.106979233847634E-004
2.133481770037708E-004  2.160317667094954E-004  2.187491118182885E-004  2.215006369208517E-004
2.242867719485803E-004  2.271079522407407E-004  2.299646186124936E-004  2.328572174237714E-004
2.357862006490233E-004  2.387520259478373E-004  2.417551567364503E-004  2.447960622601583E-004
2.478752176666358E-004  2.509931040801798E-004  2.541502086768859E-004  2.573470247607700E-004
2.605840518408498E-004  2.638617957091922E-004  2.671807685199451E-004  2.705414888693626E-004
2.739444818768369E-004  2.773902792669488E-004  2.808794194525513E-004  2.844124476188968E-004
2.879899158088243E-004  2.916123830090168E-004  2.952804152373446E-004  2.989945856313061E-004
3.027554745375815E-004  3.065636696027143E-004  3.104197658649309E-004  3.143243658471181E-004
3.182780796509667E-004  3.222815250523026E-004  3.263353275976148E-004  3.304401207017982E-004
3.345965457471272E-004  3.388052521834712E-004  3.430668976297735E-004  3.473821479768054E-004
3.517516774912128E-004  3.561761689208730E-004  3.606563136015730E-004  3.651928115650343E-004
3.697863716482932E-004  3.744377116044580E-004  3.791475582148608E-004  3.839166474026164E-004
3.887457243476131E-004  3.936355436029483E-004  3.985868692128290E-004  4.036004748319558E-004
4.086771438464067E-004  4.138176694960437E-004  4.190228549984580E-004  4.242935136744740E-004
4.296304690752340E-004  4.350345551108769E-004  4.405066161808406E-004  4.460475073058002E-004
4.516580942612666E-004  4.573392537128673E-004  4.630918733533246E-004  4.689168520411611E-004
4.748150999411478E-004  4.807875386665186E-004  4.868351014229763E-004  4.929587331545051E-004
4.991593906910217E-004  5.054380428978814E-004  5.117956708272652E-004  5.182332678714725E-004
5.247518399181385E-004  5.313524055074075E-004  5.380359959910820E-004  5.448036556937725E-004
5.516564420760771E-004  5.585954258998099E-004  5.656216913953108E-004  5.727363364308586E-004
5.799404726842142E-004  5.872352258163252E-004  5.946217356472094E-004  6.021011563340559E-004
6.096746565515638E-004  6.173434196745501E-004  6.251086439628561E-004  6.329715427485747E-004
6.409333446256384E-004  6.489952936417887E-004  6.571586494929613E-004  6.654246877201174E-004
6.737946999085467E-004  6.822699938896827E-004  6.908518939454532E-004  6.995417410152011E-004
7.083408929052126E-004  7.172507245008699E-004  7.262726279814891E-004  7.354080130378436E-004
7.446583070924338E-004  7.540249555225276E-004  7.635094218859962E-004  7.731131881500070E-004
7.828377549225773E-004  7.926846416870494E-004  8.026553870395161E-004  8.127515489292211E-004
8.229747049020031E-004  8.333264523467809E-004  8.438084087451531E-004  8.544222119241347E-004
8.651695203120635E-004  8.760520131977428E-004  8.870713909928258E-004  8.982293754975116E-004
9.095277101695825E-004  9.209681603968140E-004  9.325525137728327E-004  9.442825803764211E-004
9.561601930543505E-004  9.681872077077693E-004  9.803655035821829E-004  9.926969835611012E-004
1.005183574463359E-003  1.017827227344187E-003  1.030629917800075E-003  1.043593646277450E-003
1.056720438385266E-003  1.070012345211493E-003  1.083471443643615E-003  1.097099836693149E-003
1.110899653824231E-003  1.124873051286366E-003  1.139022212451338E-003  1.153349348154362E-003
1.167856697039545E-003  1.182546525909662E-003  1.197421130080362E-003  1.212482833738810E-003
1.227733990306844E-003  1.243176982808709E-003  1.258814224243400E-003  1.274648157961707E-003
1.290681258047987E-003  1.306916029706748E-003  1.323355009654094E-003  1.340000766514083E-003
1.356855901220093E-003  1.373923047421214E-003  1.391204871893762E-003  1.408704074957974E-003
1.426423390899926E-003  1.444365588398788E-003  1.462533470959422E-003  1.480929877350440E-003
1.499557682047772E-003  1.518419795683794E-003  1.537519165502143E-003  1.556858775818209E-003
1.576441648485449E-003  1.596270843367562E-003  1.616349458816587E-003  1.636680632157043E-003
1.657267540176125E-003  1.678113399620096E-003  1.699221467696908E-003  1.720595042585138E-003
1.742237463949351E-003  1.764152113461916E-003  1.786342415331403E-003  1.808811836837631E-003
1.831563888873418E-003  1.854602126493188E-003  1.877930149468441E-003  1.901551602850225E-003
1.925470177538693E-003  1.949689610859799E-003  1.974213687149278E-003  1.999046238343943E-003
2.024191144580439E-003  2.049652334801526E-003  2.075433787369974E-003  2.101539530690203E-003
2.127973643837718E-003  2.154740257196477E-003  2.181843553104277E-003  2.209287766506244E-003
2.237077185616560E-003  2.265216152588497E-003  2.293709064192893E-003  2.322560372505157E-003
2.351774585600911E-003  2.381356268260388E-003  2.411310042681687E-003  2.441640589203003E-003
2.472352647033940E-003  2.503451014996015E-003  2.534940552272495E-003  2.566826179167643E-003
2.599112877875535E-003  2.631805693258531E-003  2.664909733635549E-003  2.698430171580249E-003
2.732372244729257E-003  2.766741256600558E-003  2.801542577422182E-003  2.836781644971310E-003
2.872463965423943E-003  2.908595114215247E-003  2.945180736910729E-003  2.982226550088371E-003
3.019738342231850E-003  3.057721974635010E-003  3.096183382317689E-003  3.135128574953089E-003
3.174563637806795E-003  3.214494732687607E-003  3.254928098910343E-003  3.295870054270737E-003
3.337326996032608E-003  3.379305401927456E-003  3.421811831166603E-003  3.464852925466103E-003
3.508435410084504E-003  3.552566094873697E-003  3.597251875342967E-003  3.642499733736424E-003
3.688316740124002E-003  3.734710053506162E-003  3.781686922932508E-003  3.829254688634466E-003
3.877420783172201E-003  3.926192732595981E-003  3.975578157622132E-003  4.025584774823785E-003
4.076220397836622E-003  4.127492938579755E-003  4.179410408491992E-003  4.231980919783632E-003
4.285212686704018E-003  4.339114026825038E-003  4.393693362340742E-003  4.448959221383352E-003
4.504920239355783E-003  4.561585160280940E-003  4.618962838168012E-003  4.677062238395898E-003
4.735892439114093E-003  4.795462632661148E-003  4.855782127000998E-003  4.916860347177358E-003
4.978706836786395E-003  5.041331259467938E-003  5.104743400415441E-003  5.168953167904941E-003
5.233970594843238E-003  5.299805840335580E-003  5.366469191273014E-003  5.433971063939749E-003
5.502322005640726E-003  5.571532696349640E-003  5.641613950377735E-003  5.712576718063529E-003
5.784432087483848E-003  5.857191286186355E-003  5.930865682943872E-003  6.005466789530794E-003
6.081006262521798E-003  6.157495905113224E-003  6.234947668967346E-003  6.313373656079838E-003
6.392786120670757E-003  6.473197471099255E-003  6.554620271802436E-003  6.637067245258564E-003
6.720551273974975E-003  6.805085402501019E-003  6.890682839466258E-003  6.977356959644366E-003
7.065121306042962E-003  7.153989592019722E-003  7.243975703425146E-003  7.335093700772214E-003
7.427357821433391E-003  7.520782481865243E-003  7.615382279861032E-003  7.711171996831671E-003
7.808166600115317E-003  7.906381245316068E-003  8.005831278672059E-003  8.106532239453323E-003
8.208499862389879E-003  8.311750080130256E-003  8.416299025731041E-003  8.522163035177688E-003
8.629358649937049E-003  8.737902619542038E-003  8.847811904208731E-003  8.959103677486471E-003
9.071795328941255E-003  9.185904466872889E-003  9.301448921066349E-003  9.418446745577670E-003
9.536916221554965E-003  9.656875860094886E-003  9.778344405135005E-003  9.901340836382630E-003
1.002588437228038E-002  1.015199447300911E-002  1.027969084352864E-002  1.040899343665666E-002
1.053992245618643E-002  1.067249836004362E-002  1.080674186348293E-002  1.094267394232490E-002
1.108031583623340E-002  1.121968905203437E-002  1.136081536707638E-002  1.150371683263324E-002
1.164841577734970E-002  1.179493481073026E-002  1.194329682667196E-002  1.209352500704167E-002
1.224564282529820E-002  1.239967405016013E-002  1.255564274931973E-002  1.271357329320356E-002
1.287349035878042E-002  1.303541893341717E-002  1.319938431878303E-002  1.336541213480305E-002
1.353352832366127E-002  1.370375915385425E-002  1.387613122429553E-002  1.405067146847182E-002
1.422740715865137E-002  1.440636591014533E-002  1.458757568562274E-002  1.477106479947969E-002
1.495686192226351E-002  1.514499608515267E-002  1.533549668449285E-002  1.552839348639030E-002
1.572371663136277E-002  1.592149663904904E-002  1.612176441297769E-002  1.632455124539584E-002
1.652988882215866E-002  1.673780922768026E-002  1.694834494994702E-002  1.716152888559389E-002
1.737739434504451E-002  1.759597505771615E-002  1.781730517728985E-002  1.804141928704709E-002
1.826835240527348E-002  1.849813999073043E-002  1.873081794819571E-002  1.896642263407353E-002
1.920499086207542E-002  1.944655990897236E-002  1.969116752041940E-002  1.993885191685352E-002
2.018965179946555E-002  2.044360635624741E-002  2.070075526811528E-002  2.096113871510978E-002
2.122479738267431E-002  2.149177246801207E-002  2.176210568652330E-002  2.203583927832340E-002
2.231301601484298E-002  2.259367920551109E-002  2.287787270452225E-002  2.316564091768889E-002
2.345702880937978E-002  2.375208190954581E-002  2.405084632083422E-002  2.435336872579208E-002
2.465969639416066E-002  2.496987719026137E-002  2.528395958047465E-002  2.560199264081301E-002
2.592402606458916E-002  2.625011017018074E-002  2.658029590889268E-002  2.691463487291839E-002
2.725317930340126E-002  2.759598209859732E-002  2.794309682214074E-002  2.829457771141330E-002
2.865047968601901E-002  2.901085835636554E-002  2.937577003235329E-002  2.974527173217407E-002
3.011942119122023E-002  3.049827687110593E-002  3.088189796880199E-002  3.127034442588539E-002
3.166367693790534E-002  3.206195696386709E-002  3.246524673583497E-002  3.287360926865641E-002
3.328710836980796E-002  3.370580864936545E-002  3.412977553009940E-002  3.455907525769746E-002
3.499377491111554E-002  3.543394241305888E-002  3.587964654059518E-002  3.633095693590115E-002
3.678794411714423E-002  3.725067948950130E-002  3.771923535631570E-002  3.819368493039491E-002
3.867410234545015E-002  3.916056266767990E-002  3.965314190749929E-002  4.015191703141668E-002
4.065696597405993E-002  4.116836765035388E-002  4.168620196785084E-002  4.221054983921656E-002
4.274149319487268E-002  4.327911499579875E-002  4.382349924649496E-002  4.437473100810799E-002
4.493289641172217E-002  4.549808267181737E-002  4.607037809989661E-002  4.664987211828487E-002
4.723665527410147E-002  4.783081925340842E-002  4.843245689553626E-002  4.904166220759064E-002
4.965853037914099E-002  5.028315779709409E-002  5.091564206075493E-002  5.155608199707643E-002
5.220457767610164E-002  5.286123042659977E-002  5.352614285189903E-002  5.419941884591872E-002
5.488116360940266E-002  5.557148366635717E-002  5.627048688069562E-002  5.697828247309230E-002
5.769498103804867E-002  5.842069456117360E-002  5.915553643668155E-002  5.989962148511058E-002
6.065306597126334E-002  6.141598762237379E-002  6.218850564650204E-002  6.297074075116103E-002
6.376281516217738E-002  6.456485264278920E-002  6.537697851298474E-002  6.619931966908342E-002
6.703200460356397E-002  6.787516342514148E-002  6.872892787909722E-002  6.959343136786421E-002
7.046880897187137E-002  7.135519747065029E-002  7.225273536420726E-002  7.316156289466418E-002
7.408182206817179E-002  7.501365667709821E-002  7.595721232249689E-002  7.691263643685711E-002
7.788007830714049E-002  7.885968909810767E-002  7.985162187593772E-002  8.085603163214529E-002
8.187307530779825E-002  8.290291181804003E-002  8.394570207692074E-002  8.500160902253985E-002
8.607079764250583E-002  8.715343499971585E-002  8.824969025845955E-002  8.935973471085158E-002
9.048374180359599E-002  9.162188716508782E-002  9.277434863285536E-002  9.394130628134759E-002
9.512294245007141E-002  9.631944177208221E-002  9.753099120283332E-002  9.875778004938821E-002
1.000000000000000E-001  1.012578451540635E-001  1.025315120524429E-001  1.038211997081826E-001
1.051271096376025E-001  1.064494458917859E-001  1.077884150884632E-001  1.091442264442952E-001
1.105170918075648E-001  1.119072256912781E-001  1.133148453066826E-001  1.147401705972072E-001
1.161834242728284E-001  1.176448318448691E-001  1.191246216612359E-001  1.206230249420981E-001
1.221402758160170E-001  1.236766113565285E-001  1.252322716191865E-001  1.268074996790720E-001
1.284025416687741E-001  1.300176468168491E-001  1.316530674867622E-001  1.333090592163204E-001
1.349858807576004E-001  1.366837941173796E-001  1.384030645980752E-001  1.401439608391974E-001
1.419067548593258E-001  1.436917220986125E-001  1.454991414618201E-001  1.473292953619016E-001
1.491824697641271E-001  1.510589542307673E-001  1.529590419663380E-001  1.548830298634133E-001
1.568312185490169E-001  1.588039124315944E-001  1.608014197485784E-001  1.628240526145511E-001
1.648721270700128E-001  1.669459631307643E-001  1.690458848379092E-001  1.711722203084865E-001
1.733253017867396E-001  1.755054656960298E-001  1.777130526914039E-001  1.799484077128209E-001
1.822118800390510E-001  1.845038233422501E-001  1.868245957432222E-001  1.891745598673770E-001
1.915540829013897E-001  1.939635366505755E-001  1.964032975969849E-001  1.988737469582292E-001
2.013752707470477E-001  2.039082598316216E-001  2.064731099966488E-001  2.090702220051857E-001
2.117000016612675E-001  2.143628598733160E-001  2.170592127183443E-001  2.197894815069703E-001
2.225540928492469E-001  2.253534787213209E-001  2.281880765329304E-001  2.310583291957505E-001
2.339646851925992E-001  2.369075986475142E-001  2.398875293967098E-001  2.429049430604289E-001
2.459603111156951E-001  2.490541109699832E-001  2.521868260358150E-001  2.553589458062927E-001
2.585709659315847E-001  2.618233882963702E-001  2.651167210982608E-001  2.684514789272072E-001
2.718281828459045E-001  2.752473604712107E-001  2.787095460565852E-001  2.822152805755699E-001
2.857651118063166E-001  2.893595944171761E-001  2.929992900533705E-001  2.966847674247469E-001
3.004166023946432E-001  3.041953780698666E-001  3.080216848918031E-001  3.118961207286796E-001
3.158192909689769E-001  3.197918086160275E-001  3.238142943837963E-001  3.278873767938674E-001
3.320116922736551E-001  3.361878852558430E-001  3.404166082790818E-001  3.446985220899477E-001
3.490342957461842E-001  3.534246067212473E-001  3.578701410101580E-001  3.623715932366941E-001
3.669296667619247E-001  3.715450737941104E-001  3.762185354999915E-001  3.809507821174662E-001
3.857425530696973E-001  3.905945970806455E-001  3.955076722920577E-001  4.004825463819329E-001
4.055199966844676E-001  4.106208103115211E-001  4.157857842756011E-001  4.210157256143960E-001
4.263114515168822E-001  4.316737894510044E-001  4.371035772929757E-001  4.426016634581938E-001
4.481689070338065E-001  4.538061779129507E-001  4.595143569306690E-001  4.652943360015468E-001
4.711470182590745E-001  4.770733181967602E-001  4.830741618110284E-001  4.891504867459006E-001
4.953032424395113E-001  5.015333902724562E-001  5.078419037180082E-001  5.142297684942292E-001
5.206979827179851E-001  5.272475570609090E-001  5.338795149073180E-001  5.405948925141166E-001
5.473947391727205E-001  5.542801173730024E-001  5.612521029693155E-001  5.683117853485948E-001
5.754602676005731E-001  5.826986666901479E-001  5.900281136319018E-001  5.974497536668322E-001
6.049647464412951E-001  6.125742661881987E-001  6.202795019104872E-001  6.280816575669166E-001
6.359819522601829E-001  6.439816204274064E-001  6.520819120330112E-001  6.602840927640434E-001
6.685894442279272E-001  6.769992641527274E-001  6.855148665899182E-001  6.941375821197036E-001
7.028687580589301E-001  7.117097586715997E-001  7.206619653820465E-001  7.297267769907837E-001
7.389056098930651E-001  7.481998983002086E-001  7.576110944636849E-001  7.671406689020428E-001
7.767901106306778E-001  7.865609273944891E-001  7.964546459034780E-001  8.064728120712875E-001
8.166169912567647E-001  8.268887685085474E-001  8.372897488127264E-001  8.478215573436382E-001
8.584858397177897E-001  8.692842622510002E-001  8.802185122187612E-001  8.912902981198737E-001
9.025013499434131E-001  9.138534194390328E-001  9.253482803906889E-001  9.369877288937936E-001
9.487735836358526E-001  9.607076861806512E-001  9.727919012559887E-001  9.850281170450581E-001
9.974182454814727E-001  1.009964222548005E+000  1.022668008579101E+000  1.035531588567169E+000
1.048556972472757E+000  1.061746195538601E+000  1.075101318607635E+000  1.088624428445015E+000
1.102317638064160E+000  1.116183087056936E+000  1.130222941927959E+000  1.144439396433112E+000
1.158834671922340E+000  1.173411017686721E+000  1.188170711309940E+000  1.203116059024154E+000
1.218249396070347E+000  1.233573087063227E+000  1.249089526360681E+000  1.264801138437922E+000
1.280710378266304E+000  1.296819731696913E+000  1.313131715849003E+000  1.329648879503279E+000
1.346373803500171E+000  1.363309101143076E+000  1.380457418606710E+000  1.397821435350565E+000
1.415403864537581E+000  1.433207453458095E+000  1.451234983959093E+000  1.469489272878894E+000
1.487973172487285E+000  1.506689570931179E+000  1.525641392685918E+000  1.544831599012203E+000
1.564263188418817E+000  1.583939197131143E+000  1.603862699565568E+000  1.624036808809886E+000
1.644464677109706E+000  1.665149496361015E+000  1.686094498608905E+000  1.707302956552586E+000
1.728778184056766E+000  1.750523536669429E+000  1.772542412146164E+000  1.794838250981066E+000
1.817414536944307E+000  1.840274797626507E+000  1.863422604989902E+000  1.886861575926488E+000
1.910595372823167E+000  1.934627704133982E+000  1.958962324959602E+000  1.983603037634033E+000
2.008553692318767E+000  2.033818187604363E+000  2.059400471119603E+000  2.085304540148344E+000
2.111534442254063E+000  2.138094275912334E+000  2.164988191151207E+000  2.192220390199647E+000
2.219795128144166E+000  2.247716713593662E+000  2.275989509352673E+000  2.304617933103060E+000
2.333606458094272E+000  2.362959613842325E+000  2.392681986837515E+000  2.422778221261098E+000
2.453253019710937E+000  2.484111143936285E+000  2.515357415581840E+000  2.546996716941110E+000
2.579033991719306E+000  2.611474245805799E+000  2.644322548056280E+000  2.677584031084816E+000
2.711263892065791E+000  2.745367393546010E+000  2.779899864266969E+000  2.814866699997466E+000
2.850273364376732E+000  2.886125389768103E+000  2.922428378123494E+000  2.959188001858698E+000
2.996410004739702E+000  3.034100202780196E+000  3.072264485150293E+000  3.110908815096766E+000
3.150039230874797E+000  3.189661846691450E+000  3.229782853661072E+000  3.270408520772617E+000
3.311545195869231E+000  3.353199306640096E+000  3.395377361624755E+000  3.438085951230123E+000
3.481331748760205E+000  3.525121511458854E+000  3.569462081565591E+000  3.614360387384694E+000
3.659823444367804E+000  3.705858356210059E+000  3.752472315960099E+000  3.799672607143980E+000
3.847466604903214E+000  3.895861777147202E+000  3.944865685720055E+000  3.994485987582193E+000
4.044730436006743E+000  4.095606881790980E+000  4.147123274483081E+000  4.199287663624201E+000
4.252108200006278E+000  4.305593136945596E+000  4.359750831572351E+000  4.414589746136529E+000
4.470118449330085E+000  4.526345617625877E+000  4.583280036633352E+000  4.640930602471298E+000
4.699306323157935E+000  4.758416320018370E+000  4.818269829109882E+000  4.878876202665046E+000
4.940244910553019E+000  5.002385541759281E+000  5.065307805883867E+000  5.129021534658571E+000
5.193536683483149E+000  5.258863332980845E+000  5.325011690573570E+000  5.391992092076757E+000
5.459815003314423E+000  5.528491021754449E+000  5.598030878164415E+000  5.668445438288387E+000
5.739745704544624E+000  5.811942817744798E+000  5.885048058834746E+000  5.959072850657099E+000
6.034028759736206E+000  6.109927498085337E+000  6.186780925036788E+000  6.264601049094892E+000
6.343400029812335E+000  6.423190179690195E+000  6.503983966101702E+000  6.585794013240370E+000
6.668633104092521E+000  6.752514182434615E+000  6.837450354855823E+000  6.923454892805864E+000
7.010541234668786E+000  7.098722987862693E+000  7.188013930965907E+000  7.278428015869975E+000
7.369979369959585E+000  7.462682298320091E+000  7.556551285972668E+000  7.651601000137589E+000
7.747846292526097E+000  7.845302201660916E+000  7.943983955226133E+000  8.043906972446532E+000
8.145086866496815E+000  8.247539446941312E+000  8.351280722204127E+000  8.456326902070600E+000
8.562694400220066E+000  8.670399836790491E+000  8.779460040975492E+000  8.889892053653833E+000
9.001713130052181E+000  9.114940742441245E+000  9.229592582865788E+000  9.345686565909174E+000
9.463240831492415E+000  9.582273747708687E+000  9.702803913693344E+000  9.824850162530007E+000
9.948431564193395E+000  1.007356742852891E+001  1.020027730826997E+001  1.032858100209308E+001
1.045849855771142E+001  1.059005027500740E+001  1.072325670920446E+001  1.085813867407896E+001
1.099471724521236E+001  1.113301376328424E+001  1.127304983740693E+001  1.141484734850190E+001
1.155842845271877E+001  1.170381558489719E+001  1.185103146207233E+001  1.200009908702456E+001
1.215104175187350E+001  1.230388304171765E+001  1.245864683831955E+001  1.261535732383722E+001
1.277403898460290E+001  1.293471661494890E+001  1.309741532108186E+001  1.326216052500567E+001
1.342897796849355E+001  1.359789371711051E+001  1.376893416428587E+001  1.394212603543752E+001
1.411749639214770E+001  1.429507263639140E+001  1.447488251481811E+001  1.465695412308712E+001
1.484131591025766E+001  1.502799668323410E+001  1.521702561126696E+001  1.540843223051089E+001
1.560224644863951E+001  1.579849854951875E+001  1.599721919793867E+001  1.619843944440483E+001
1.640219072999020E+001  1.660850489124761E+001  1.681741416518454E+001  1.702895119430011E+001
1.724314903168543E+001  1.746004114618844E+001  1.767966142764325E+001  1.790204419216567E+001
1.812722418751514E+001  1.835523659852400E+001  1.858611705259543E+001  1.881990162527005E+001
1.905662684586300E+001  1.929632970317166E+001  1.953904765125510E+001  1.978481861528658E+001
2.003368099747918E+001  2.028567368308649E+001  2.054083604647834E+001  2.079920795729306E+001
2.106082978666748E+001  2.132574241354461E+001  2.159398723106141E+001  2.186560615301642E+001
2.214064162041872E+001  2.241913660811973E+001  2.270113463152781E+001  2.298667975340788E+001
2.327581659076623E+001  2.356859032182186E+001  2.386504669306598E+001  2.416523202640968E+001
2.446919322642204E+001  2.477697778765903E+001  2.508863380208446E+001  2.540420996658473E+001
2.572375559057750E+001  2.604732060371668E+001  2.637495556369392E+001  2.670671166413821E+001
2.704264074261530E+001  2.738279528872706E+001  2.772722845231340E+001  2.807599405175695E+001
2.842914658239209E+001  2.878674122502034E+001  2.914883385453202E+001  2.951548104863723E+001
2.988674009670606E+001  3.026266900871999E+001  3.064332652433646E+001  3.102877212206664E+001
3.141906602856942E+001  3.181426922806181E+001  3.221444347184765E+001  3.261965128796683E+001
3.302995599096489E+001  3.344542169178651E+001  3.386611330779276E+001  3.429209657290444E+001
3.472343804787351E+001  3.516020513068288E+001  3.560246606707791E+001  3.605028996122977E+001
3.650374678653289E+001  3.696290739653892E+001  3.742784353602722E+001  3.789862785221555E+001
3.837533390611122E+001  3.885803618400488E+001  3.934681010910965E+001  3.984173205334559E+001
4.034287934927351E+001  4.085033030217805E+001  4.136416420230288E+001  4.188446133724043E+001
4.241130300447646E+001  4.294477152409339E+001  4.348495025163287E+001  4.403192359111989E+001
4.458577700825175E+001  4.514659704375156E+001  4.571447132689089E+001  4.628948858918196E+001
4.687173867824170E+001  4.746131257183129E+001  4.805830239207094E+001  4.866280141983472E+001
4.927490410932567E+001  4.989470610283421E+001  5.052230424568295E+001  5.115779660135842E+001
5.180128246683419E+001  5.245286238808605E+001  5.311263817580211E+001  5.378071292129174E+001
5.445719101259294E+001  5.514217815078388E+001  5.583578136649860E+001  5.653810903665052E+001
5.724927090136718E+001  5.796937808113664E+001  5.869854309417089E+001  5.943687987398683E+001
6.018450378720822E+001  6.094153165159281E+001  6.170808175428436E+001  6.248427387029609E+001
6.327022928122541E+001  6.406607079420408E+001  6.487192276108790E+001  6.568791109788597E+001
6.651416330443618E+001  6.735080848432695E+001  6.819797736506955E+001  6.905580231852544E+001
6.992441738158858E+001  7.080395827712994E+001  7.169456243520399E+001  7.259636901452214E+001
7.350951892419739E+001  7.443415484576070E+001  7.537042125545614E+001  7.631846444681517E+001
7.727843255351499E+001  7.825047557252566E+001  7.923474538754621E+001  8.023139579273790E+001
8.124058251675440E+001  8.226246324707424E+001  8.329719765464088E+001  8.434494741881035E+001
8.540587625261516E+001  8.648014992834418E+001  8.756793630344460E+001  8.866940534675092E+001
8.978472916504184E+001  9.091408202993323E+001  9.205764040510810E+001  9.321558297388883E+001
9.438809066715797E+001  9.557534669162776E+001  9.677753655846766E+001  9.799484811229043E+001
9.922747156050262E+001
</PP_R>
<PP_RAB type="real" size="1113" columns="4">
1.139852456943145E-006  1.154190035836278E-006  1.168707959270728E-006  1.183408495701568E-006
1.198293942117525E-006  1.213366624399886E-006  1.228628897685924E-006  1.244083146736889E-006
1.259731786310638E-006  1.275577261538943E-006  1.291622048309546E-006  1.307868653653023E-006
1.324319616134513E-006  1.340977506250371E-006  1.357844926829823E-006  1.374924513441648E-006
1.392218934806004E-006  1.409730893211416E-006  1.427463124937009E-006  1.445418400680072E-006
1.463599525988968E-006  1.482009341701516E-006  1.500650724388876E-006  1.519526586805019E-006
1.538639878341851E-006  1.557993585490062E-006  1.577590732305768E-006  1.597434380883031E-006
1.617527631832310E-006  1.637873624764950E-006  1.658475538783740E-006  1.679336592979659E-006
1.700460046934867E-006  1.721849201232021E-006  1.743507397969999E-006  1.765438021286102E-006
1.787644497884843E-006  1.810130297573370E-006  1.832898933803629E-006  1.855953964221358E-006
1.879298991221966E-006  1.902937662513415E-006  1.926873671686188E-006  1.951110758790415E-006
1.975652710920271E-006  2.000503362805706E-006  2.025666597411633E-006  2.051146346544658E-006
2.076946591467417E-006  2.103071363520676E-006  2.129524744753218E-006  2.156310868559678E-006
2.183433920326400E-006  2.210898138085401E-006  2.238707813176587E-006  2.266867290918269E-006
2.295380971286134E-006  2.324253309600751E-006  2.353488817223722E-006  2.383092062262596E-006
2.413067670284637E-006  2.443420325039584E-006  2.474154769191496E-006  2.505275805059799E-006
2.536788295369668E-006  2.568697164011824E-006  2.601007396811912E-006  2.633724042309543E-006
2.666852212547135E-006  2.700397083868693E-006  2.734363897728607E-006  2.768757961510646E-006
2.803584649357254E-006  2.838849403009258E-006  2.874557732656170E-006  2.910715217797142E-006