<?xml version="1.0" encoding="UTF-8"?>
<UPF version="2.0.1">
  <PP_INFO><![CDATA[
Generated using "atomic" code by A. Dal Corso  v.6.3MaX
Author: MS
Generation date: 20Mar2023
Pseudopotential type: PAW
Element: Cf
Functional:  SLA  PW   PBX  PBC
    Suggested minimum cutoff for wavefunctions:  68. Ry
    Suggested minimum cutoff for charge density: 372. Ry
    The Pseudo was generated with a Scalar-Relativistic Calculation
    Local Potential according to Troullier-Martins recipe, cutoff radius:   1.2500
    Pseudopotential contains additional information for GIPAW reconstruction.
    Valence configuration:
    nl pn  l   occ       Rcut    Rcut US       E pseu
    6S  1  0  2.00      1.200      1.600    -4.137662
    7S  2  0  2.00      1.200      1.600    -0.291913
    6P  2  1  6.00      1.300      2.000    -1.774211
    6D  3  2  0.00      1.400      2.200    -0.055822
    5F  4  3 10.00      1.200      1.800    -0.298710
    Generation configuration:
    6S  1  0  2.00      1.200      1.600    -4.137688
    7S  2  0  2.00      1.200      1.600    -0.291924
    6P  2  1  6.00      1.300      2.000    -1.774235
    7P  3  1  0.00      1.300      2.000     3.000000
    6D  3  2  0.00      1.400      2.200    -0.055832
    6D  3  2  0.00      1.400      2.200     3.500000
    5F  4  3 10.00      1.200      1.800    -0.298739
    5F  4  3  0.00      1.200      2.000     1.000000
    Pseudization used: troullier-martins
]]>
    <PP_INPUTFILE><![CDATA[
 &input
   title='Californium',
   atom='Cf'
   rel=1,
   config='[Rn] 6d0.0 7s2.0 7p0.0 5f10.0',
   iswitch=3,
   dft='PBE'
 /
 &inputp
   lpaw=.true.,
   pseudotype=3,
   file_pseudopw='Cf.pbe-spn-kjpaw_MS.UPF',
   author='MS',
   lloc=-2,
   rcloc=1.25,
   which_augfun='PSQ',
   rmatch_augfun_nc=.true.,
   nlcc=.true.,
   new_core_ps=.true.,
   rcore=1.05,
   tm=.true.
   lgipaw_reconstruction=.true.,
   use_paw_as_gipaw=.true.,
 /
8
6S  1  0  2.00  0.00  1.20  1.60  0.0
7S  2  0  2.00  0.00  1.20  1.60  0.0
6P  2  1  6.00  0.00  1.30  2.00  0.0
7P  3  1  0.00  3.00  1.30  2.00  0.0
6D  3  2  0.00  0.00  1.40  2.20  0.0
6D  3  2  0.00  3.50  1.40  2.20  0.0
5F  4  3 10.00  0.00  1.20  1.80  0.0
5F  4  3  0.00  1.00  1.20  2.00  0.0
]]></PP_INPUTFILE>
  </PP_INFO>
  <!--
 END OF HUMAN READABLE SECTION 
-->
  <PP_HEADER generated="Generated using &quot;atomic&quot; code by A. Dal Corso  v.6.3MaX" author="MS" date="20Mar2023" comment="" element="Cf" pseudo_type="PAW" relativistic="scalar" is_ultrasoft="true" is_paw="true" is_coulomb="false" has_so="false" has_wfc="true" has_gipaw="true" paw_as_gipaw="true" core_correction="true" functional=" SLA  PW   PBX  PBC" z_valence="2.000000000000e1" total_psenergy="-1.274575512750e3" wfc_cutoff="6.763536628456e1" rho_cutoff="3.720776442880e2" l_max="3" l_max_rho="6" l_local="-2" mesh_size="1297" number_of_wfc="5" number_of_proj="8"/>
  <PP_MESH dx="1.250000000000e-2" mesh="1297" xmin="-7.000000000000e0" rmax="1.000000000000e2" zmesh="9.800000000000e1">
    <PP_R>
      9.304918015862411e-6 9.421959476214512e-6 9.540473136903900e-6 9.660477515931163e-6
      9.781991364224695e-6 9.905033668570500e-6 1.002962365457897e-5 1.015578078968889e-5
      1.028352478620929e-5 1.041287560439954e-5 1.054385345558813e-5 1.067647880533080e-5
      1.081077237660827e-5 1.094675515306426e-5 1.108444838228426e-5 1.122387357911549e-5
      1.136505252902861e-5 1.150800729152176e-5 1.165276020356742e-5 1.179933388310263e-5
      1.194775123256300e-5 1.209803544246135e-5 1.225020999501123e-5 1.240429866779607e-5
      1.256032553748450e-5 1.271831498359234e-5 1.287829169229198e-5 1.304028066026964e-5
      1.320430719863110e-5 1.337039693685673e-5 1.353857582680603e-5 1.370887014677272e-5
      1.388130650559075e-5 1.405591184679201e-5 1.423271345281631e-5 1.441173894927430e-5
      1.459301630926402e-5 1.477657385774179e-5 1.496244027594799e-5 1.515064460588864e-5
      1.534121625487319e-5 1.553418500010950e-5 1.572958099335664e-5 1.592743476563605e-5
      1.612777723200222e-5 1.633063969637310e-5 1.653605385642150e-5 1.674405180852782e-5
      1.695466605279524e-5 1.716792949812797e-5 1.738387546737320e-5 1.760253770252798e-5
      1.782395037001143e-5 1.804814806600327e-5 1.827516582184969e-5 1.850503910953689e-5
      1.873780384723375e-5 1.897349640490409e-5 1.921215360998957e-5 1.945381275316405e-5
      1.969851159416030e-5 1.994628836767007e-5 2.019718178931833e-5 2.045123106171265e-5
      2.070847588056871e-5 2.096895644091284e-5 2.123271344336254e-5 2.149978810048607e-5
      2.177022214324192e-5 2.204405782749953e-5 2.232133794064169e-5 2.260210580825017e-5
      2.288640530087554e-5 2.317428084089190e-5 2.346577740943812e-5 2.376094055344606e-5
      2.405981639275748e-5 2.436245162733034e-5 2.466889354453575e-5 2.497919002654676e-5
      2.529338955781999e-5 2.561154123267141e-5 2.593369476294753e-5 2.625990048579285e-5
      2.659020937151529e-5 2.692467303155022e-5 2.726334372652500e-5 2.760627437442476e-5
      2.795351855886090e-5 2.830513053744376e-5 2.866116525026033e-5 2.902167832845885e-5
      2.938672610294126e-5 2.975636561316497e-5 3.013065461605558e-5 3.050965159503123e-5
      3.089341576914097e-5 3.128200710231779e-5 3.167548631274804e-5 3.207391488235898e-5
      3.247735506642517e-5 3.288586990329618e-5 3.329952322424640e-5 3.371837966344881e-5
      3.414250466807420e-5 3.457196450851747e-5 3.500682628875240e-5 3.544715795681687e-5
      3.589302831542987e-5 3.634450703274213e-5 3.680166465322174e-5 3.726457260867697e-5
      3.773330322941768e-5 3.820792975555695e-5 3.868852634845518e-5 3.917516810230780e-5
      3.966793105587889e-5 4.016689220438248e-5 4.067212951151317e-5 4.118372192162814e-5
      4.170174937208232e-5 4.222629280571874e-5 4.275743418351611e-5 4.329525649739531e-5
      4.383984378318714e-5 4.439128113376295e-5 4.494965471233067e-5 4.551505176589798e-5
      4.608756063890476e-5 4.666727078702727e-5 4.725427279115557e-5 4.784865837154705e-5
      4.845052040215792e-5 4.905995292515496e-5 4.967705116560983e-5 5.030191154637808e-5
      5.093463170316548e-5 5.157531049978382e-5 5.222404804359848e-5 5.288094570117066e-5
      5.354610611409577e-5 5.421963321504158e-5 5.490163224398796e-5 5.559220976467066e-5
      5.629147368123235e-5 5.699953325508266e-5 5.771649912197050e-5 5.844248330927128e-5
      5.917759925349124e-5 5.992196181799238e-5 6.067568731093973e-5 6.143889350347510e-5
      6.221169964811875e-5 6.299422649740306e-5 6.378659632274042e-5 6.458893293352805e-5
      6.540136169649369e-5 6.622400955528457e-5 6.705700505030217e-5 6.790047833878749e-5
      6.875456121515783e-5 6.961938713160027e-5 7.049509121892379e-5 7.138181030767356e-5
      7.227968294951149e-5 7.318884943886427e-5 7.410945183484583e-5 7.504163398345343e-5
      7.598554154004427e-5 7.694132199209465e-5 7.790912468224452e-5 7.888910083163338e-5
      7.988140356352829e-5 8.088618792724994e-5 8.190361092239961e-5 8.293383152338990e-5
      8.397701070428603e-5 8.503331146395723e-5 8.610289885154623e-5 8.718593999225865e-5
      8.828260411347586e-5 8.939306257119823e-5 9.051748887681896e-5 9.165605872423587e-5
      9.280895001730432e-5 9.397634289763408e-5 9.515841977273801e-5 9.635536534453276e-5
      9.756736663819904e-5 9.879461303140504e-5 1.000372962838962e-4 1.012956105674593e-4
      1.025697524962611e-4 1.038599211575701e-4 1.051663181428648e-4 1.064891475793317e-4
      1.078286161617618e-4 1.091849331848462e-4 1.105583105758791e-4 1.119489629278723e-4
      1.133571075330848e-4 1.147829644169762e-4 1.162267563725855e-4 1.176887089953431e-4
      1.191690507183209e-4 1.206680128479247e-4 1.221858296000370e-4 1.237227381366133e-4
      1.252789786027392e-4 1.268547941641540e-4 1.284504310452449e-4 1.300661385675211e-4
      1.317021691885701e-4 1.333587785415049e-4 1.350362254749075e-4 1.367347720932738e-4
      1.384546837979687e-4 1.401962293286954e-4 1.419596808054859e-4 1.437453137712218e-4
      1.455534072346863e-4 1.473842437141620e-4 1.492381092815737e-4 1.511152936071878e-4
      1.530160900048747e-4 1.549407954779382e-4 1.568897107655248e-4 1.588631403896132e-4
      1.608613927025968e-4 1.628847799354655e-4 1.649336182465905e-4 1.670082277711268e-4
      1.691089326710332e-4 1.712360611857241e-4 1.733899456833580e-4 1.755709227127692e-4
      1.777793330560562e-4 1.800155217818282e-4 1.822798382991228e-4 1.845726364120032e-4
      1.868942743748386e-4 1.892451149482845e-4 1.916255254559634e-4 1.940358778418597e-4
      1.964765487284381e-4 1.989479194754897e-4 2.014503762397223e-4 2.039843100350963e-4
      2.065501167939224e-4 2.091481974287271e-4 2.117789578948953e-4 2.144428092541024e-4
      2.171401677385426e-4 2.198714548159671e-4 2.226370972555385e-4 2.254375271945147e-4
      2.282731822057715e-4 2.311445053661732e-4 2.340519453258054e-4 2.369959563780773e-4
      2.399769985307052e-4 2.429955375775906e-4 2.460520451716008e-4 2.491469988982656e-4
      2.522808823504020e-4 2.554541852036750e-4 2.586674032931117e-4 2.619210386905758e-4
      2.652155997832178e-4 2.685516013529114e-4 2.719295646566886e-4 2.753500175081886e-4
      2.788134943601283e-4 2.823205363878120e-4 2.858716915736921e-4 2.894675147929908e-4
      2.931085679004024e-4 2.967954198178824e-4 3.005286466235438e-4 3.043088316416705e-4
      3.081365655338622e-4 3.120124463913275e-4 3.159370798283356e-4 3.199110790768458e-4
      3.239350650823261e-4 3.280096666007762e-4 3.321355202969738e-4 3.363132708439527e-4
      3.405435710237354e-4 3.448270818293322e-4 3.491644725680207e-4 3.535564209659289e-4
      3.580036132739290e-4 3.625067443748669e-4 3.670665178921395e-4 3.716836462996351e-4
      3.763588510330613e-4 3.810928626026696e-4 3.858864207073988e-4 3.907402743504557e-4
      3.956551819563470e-4 4.006319114893858e-4 4.056712405736869e-4 4.107739566146718e-4
      4.159408569221043e-4 4.211727488346689e-4 4.264704498461216e-4 4.318347877330236e-4
      4.372666006840835e-4 4.427667374311262e-4 4.483360573817084e-4 4.539754307534033e-4
      4.596857387097737e-4 4.654678734980551e-4 4.713227385885727e-4 4.772512488159080e-4
      4.832543305218462e-4 4.893329217001170e-4 4.954879721429589e-4 5.017204435895263e-4
      5.080313098761628e-4 5.144215570885651e-4 5.208921837158613e-4 5.274442008066266e-4
      5.340786321268610e-4 5.407965143199571e-4 5.475988970686748e-4 5.544868432591581e-4
      5.614614291470128e-4 5.685237445254733e-4 5.756748928956872e-4 5.829159916391356e-4
      5.902481721922294e-4 5.976725802230974e-4 6.051903758105991e-4 6.128027336255912e-4
      6.205108431144692e-4 6.283159086850230e-4 6.362191498946270e-4 6.442218016407998e-4
      6.523251143541589e-4 6.605303541938015e-4 6.688388032451464e-4 6.772517597202617e-4
      6.857705381607118e-4 6.943964696429611e-4 7.031309019863529e-4 7.119751999637108e-4
      7.209307455145880e-4 7.299989379611961e-4 7.391811942270556e-4 7.484789490583889e-4
      7.578936552483052e-4 7.674267838638004e-4 7.770798244756155e-4 7.868542853909868e-4
      7.967516938893180e-4 8.067735964608234e-4 8.169215590481691e-4 8.271971672911555e-4
      8.376020267744776e-4 8.481377632785975e-4 8.588060230337796e-4 8.696084729773151e-4
      8.805468010139846e-4 8.916227162797998e-4 9.028379494090542e-4 9.141942528047419e-4
      9.256934009123729e-4 9.373371904972336e-4 9.491274409251377e-4 9.610659944467010e-4
      9.731547164852007e-4 9.853954959280497e-4 9.977902454219391e-4 1.010340901671697e-3
      1.023049425742895e-3 1.035917803368276e-3 1.048948045258025e-3 1.062142187413945e-3
      1.075502291447595e-3 1.089030444902410e-3 1.102728761579891e-3 1.116599381869887e-3
      1.130644473085040e-3 1.144866229799426e-3 1.159266874191467e-3 1.173848656391147e-3
      1.188613854831602e-3 1.203564776605128e-3 1.218703757823669e-3 1.234033163983844e-3
      1.249555390336551e-3 1.265272862261238e-3 1.281188035644870e-3 1.297303397265670e-3
      1.313621465181676e-3 1.330144789124201e-3 1.346875950896227e-3 1.363817564775821e-3
      1.380972277924619e-3 1.398342770801454e-3 1.415931757581177e-3 1.433741986578757e-3
      1.451776240678711e-3 1.470037337769931e-3 1.488528131185994e-3 1.507251510150988e-3
      1.526210400230971e-3 1.545407763791089e-3 1.564846600458454e-3 1.584529947590847e-3
      1.604460880751303e-3 1.624642514188677e-3 1.645078001324254e-3 1.665770535244473e-3
      1.686723349199863e-3 1.707939717110230e-3 1.729422954076226e-3 1.751176416897335e-3
      1.773203504596379e-3 1.795507658950628e-3 1.818092365029577e-3 1.840961151739499e-3
      1.864117592374845e-3 1.887565305176575e-3 1.911307953897521e-3 1.935349248374850e-3
      1.959692945109737e-3 1.984342847854323e-3 2.009302808206062e-3 2.034576726209543e-3
      2.060168550965872e-3 2.086082281249735e-3 2.112321966134212e-3 2.138891705623447e-3
      2.165795651293297e-3 2.193038006940007e-3 2.220623029237072e-3 2.248555028400347e-3
      2.276838368861529e-3 2.305477469950111e-3 2.334476806583903e-3 2.363840909968254e-3
      2.393574368304059e-3 2.423681827504675e-3 2.454167991921859e-3 2.485037625080825e-3
      2.516295550424557e-3 2.547946652067487e-3 2.579995875558638e-3 2.612448228654389e-3
      2.645308782100935e-3 2.678582670426606e-3 2.712275092744151e-3 2.746391313563101e-3
      2.780936663612374e-3 2.815916540673196e-3 2.851336410422525e-3 2.887201807287072e-3
      2.923518335308062e-3 2.960291669016891e-3 2.997527554321765e-3 3.035231809405517e-3
      3.073410325634717e-3 3.112069068480197e-3 3.151214078449183e-3 3.190851472029121e-3
      3.230987442643402e-3 3.271628261619091e-3 3.312780279166834e-3 3.354449925373104e-3
      3.396643711204894e-3 3.439368229527087e-3 3.482630156132591e-3 3.526436250785454e-3
      3.570793358277097e-3 3.615708409495805e-3 3.661188422509712e-3 3.707240503663383e-3
      3.753871848688187e-3 3.801089743826664e-3 3.848901566970990e-3 3.897314788815808e-3
      3.946336974025526e-3 3.995975782416317e-3 4.046238970152989e-3 4.097134390960885e-3
      4.148669997353054e-3 4.200853841872846e-3 4.253694078352127e-3 4.307198963185363e-3
      4.361376856619661e-3 4.416236224061097e-3 4.471785637397446e-3 4.528033776337550e-3
      4.584989429767568e-3 4.642661497124222e-3 4.701058989785368e-3 4.760191032478048e-3
      4.820066864704231e-3 4.880695842184532e-3 4.942087438320026e-3 5.004251245672514e-3
      5.067196977463366e-3 5.130934469091234e-3 5.195473679668870e-3 5.260824693579227e-3
      5.326997722051187e-3 5.394003104755079e-3 5.461851311418268e-3 5.530552943461094e-3
      5.600118735653332e-3 5.670559557791548e-3 5.741886416397511e-3 5.814110456437990e-3
      5.887242963066191e-3 5.961295363385062e-3 6.036279228232811e-3 6.112206273990875e-3
      6.189088364414626e-3 6.266937512487121e-3 6.345765882296126e-3 6.425585790934800e-3
      6.506409710426263e-3 6.588250269672368e-3 6.671120256427015e-3 6.755032619294226e-3
      6.840000469751426e-3 6.926037084198111e-3 7.013155906030328e-3 7.101370547741245e-3
      7.190694793048098e-3 7.281142599045948e-3 7.372728098388497e-3 7.465465601496345e-3
      7.559369598793041e-3 7.654454762969205e-3 7.750735951275194e-3 7.848228207842562e-3
      7.946946766034745e-3 8.046907050827313e-3 8.148124681218135e-3 8.250615472667887e-3
      8.354395439571249e-3 8.459480797759188e-3 8.565887967032728e-3 8.673633573728557e-3
      8.782734453316920e-3 8.893207653032229e-3 9.005070434536687e-3 9.118340276617507e-3
      9.233034877917959e-3 9.349172159702837e-3 9.466770268658708e-3 9.585847579729345e-3
      9.706422698986877e-3 9.828514466539001e-3 9.952141959472788e-3 1.007732449483553e-2
      1.020408163265306e-2 1.033243317898607e-2 1.046239918902479e-2 1.059399997022271e-2
      1.072725608546964e-2 1.086218835630469e-2 1.099881786616971e-2 1.113716596370359e-2
      1.127725426607804e-2 1.141910466237532e-2 1.156273931700843e-2 1.170818067318441e-2
      1.185545145641106e-2 1.200457467804787e-2 1.215557363890162e-2 1.230847193286715e-2
      1.246329345061398e-2 1.262006238331923e-2 1.277880322644760e-2 1.293954078357878e-2
      1.310230017028307e-2 1.326710681804583e-2 1.343398647824104e-2 1.360296522615514e-2
      1.377406946506126e-2 1.394732593034486e-2 1.412276169368114e-2 1.430040416726504e-2
      1.448028110809447e-2 1.466242062230740e-2 1.484685116957348e-2 1.503360156754098e-2
      1.522270099633950e-2 1.541417900313952e-2 1.560806550676918e-2 1.580439080238911e-2
      1.600318556622621e-2 1.620448086036677e-2 1.640830813761004e-2 1.661469924638276e-2
      1.682368643571559e-2 1.703530236028207e-2 1.724958008550094e-2 1.746655309270271e-2
      1.768625528436119e-2 1.790872098939080e-2 1.813398496851060e-2 1.836208241967561e-2
      1.859304898357663e-2 1.882692074920920e-2 1.906373425951247e-2 1.930352651707929e-2
      1.954633498993772e-2 1.979219761740567e-2 2.004115281601886e-2 2.029323948553359e-2
      2.054849701500487e-2 2.080696528894098e-2 2.106868469353559e-2 2.133369612297813e-2
      2.160204098584362e-2 2.187376121156285e-2 2.214889925697391e-2 2.242749811295615e-2
      2.270960131114764e-2 2.299525293074703e-2 2.328449760540106e-2 2.357738053017862e-2
      2.387394746863257e-2 2.417424475995042e-2 2.447831932619488e-2 2.478621867963560e-2
      2.509799093017296e-2 2.541368479285543e-2 2.573334959549132e-2 2.605703528635639e-2
      2.638479244199844e-2 2.671667227513981e-2 2.705272664267967e-2 2.739300805379665e-2
      2.773756967815352e-2 2.808646535420518e-2 2.843974959761073e-2 2.879747760975204e-2
      2.915970528635883e-2 2.952648922624246e-2 2.989788674013985e-2 3.027395585966804e-2
      3.065475534639217e-2 3.104034470100680e-2 3.143078417263296e-2 3.182613476823261e-2
      3.222645826214050e-2 3.263181720571709e-2 3.304227493712207e-2 3.345789559121096e-2
      3.387874410955665e-2 3.430488625059623e-2 3.473638859990630e-2 3.517331858060691e-2
      3.561574446389634e-2 3.606373537971912e-2 3.651736132756715e-2 3.697669318741776e-2
      3.744180273080864e-2 3.791276263205208e-2 3.838964647959097e-2 3.887252878749656e-2
      3.936148500711197e-2 3.985659153884138e-2 4.035792574408752e-2 4.086556595734009e-2
      4.137959149841507e-2 4.190008268484910e-2 4.242712084444909e-2 4.296078832799959e-2
      4.350116852213084e-2 4.404834586234739e-2 4.460240584622200e-2 4.516343504675447e-2
      4.573152112589861e-2 4.630675284826028e-2 4.688922009496622e-2 4.747901387770886e-2
      4.807622635296678e-2 4.868095083640410e-2 4.929328181745188e-2 4.991331497407149e-2
      5.054114718770524e-2 5.117687655841391e-2 5.182060242020491e-2 5.247242535655400e-2
      5.313244721612093e-2 5.380077112866418e-2 5.447750152115489e-2 5.516274413409354e-2
      5.585660603803271e-2 5.655919565030637e-2 5.727062275197097e-2 5.799099850495866e-2
      5.872043546944623e-2 5.945904762144368e-2 6.020695037060221e-2 6.096426057824818e-2
      6.173109657564234e-2 6.250757818246924e-2 6.329382672555992e-2 6.408996505784864e-2
      6.489611757756969e-2 6.571241024769453e-2 6.653897061561340e-2 6.737592783306567e-2
      6.822341267631911e-2 6.908155756660483e-2 6.995049659080799e-2 7.083036552241873e-2
      7.172130184274796e-2 7.262344476240813e-2 7.353693524306597e-2 7.446191601946772e-2
      7.539853162174133e-2 7.634692839798046e-2 7.730725453711069e-2 7.827966009204518e-2
      7.926429700313038e-2 8.026131912188665e-2 8.127088223504877e-2 8.229314408890687e-2
      8.332826441395557e-2 8.437640494985176e-2 8.543772947068639e-2 8.651240381057532e-2
      8.760059588957036e-2 8.870247573989797e-2 8.981821553252665e-2 9.094798960406875e-2
      9.209197448402174e-2 9.325034892235029e-2 9.442329391741724e-2 9.561099274426466e-2
      9.681363098325026e-2 9.803139654904603e-2 9.926447971999885e-2 1.005130731678631e-1
      1.017773719879054e-1 1.030575737293883e-1 1.043538784264389e-1 1.056664886293030e-1
      1.069956094359956e-1 1.083414485243470e-1 1.097042161844526e-1 1.110841253515321e-1
      1.124813916392001e-1 1.138962333731568e-1 1.153288716253019e-1 1.167795302482768e-1
      1.182484359104429e-1 1.197358181312981e-1 1.212419093173408e-1 1.227669447983831e-1
      1.243111628643212e-1 1.258748048023701e-1 1.274581149347634e-1 1.290613406569308e-1
      1.306847324761535e-1 1.323285440507054e-1 1.339930322294901e-1 1.356784570921713e-1
      1.373850819898134e-1 1.391131735860282e-1 1.408630018986438e-1 1.426348403418944e-1
      1.444289657691409e-1 1.462456585161321e-1 1.480852024448054e-1 1.499478849876422e-1
      1.518339971925801e-1 1.537438337684877e-1 1.556776931312161e-1 1.576358774502248e-1
      1.596186926957977e-1 1.616264486868514e-1 1.636594591393436e-1 1.657180417152945e-1
      1.678025180724190e-1 1.699132139143892e-1 1.720504590417250e-1 1.742145874033251e-1
      1.764059371486496e-1 1.786248506805540e-1 1.808716747087923e-1 1.831467603041903e-1
      1.854504629535007e-1 1.877831426149497e-1 1.901451637744798e-1 1.925368955027029e-1
      1.949587115125681e-1 1.974109902177532e-1 1.998941147917961e-1 2.024084732279626e-1
      2.049544583998742e-1 2.075324681228942e-1 2.101429052162861e-1 2.127861775661575e-1
      2.154626981891901e-1 2.181728852971770e-1 2.209171623623681e-1 2.236959581836375e-1
      2.265097069534864e-1 2.293588483258839e-1 2.322438274849667e-1 2.351650952145980e-1
      2.381231079688033e-1 2.411183279430944e-1 2.441512231466852e-1 2.472222674756222e-1
      2.503319407868303e-1 2.534807289730903e-1 2.566691240389632e-1 2.598976241776643e-1
      2.631667338489088e-1 2.664769638577346e-1 2.698288314343143e-1 2.732228603147771e-1
      2.766595808230399e-1 2.801395299536745e-1 2.836632514558132e-1 2.872312959181087e-1
      2.908442208547686e-1 2.945025907926636e-1 2.982069773595402e-1 3.019579593733365e-1
      3.057561229326227e-1 3.096020615081833e-1 3.134963760357442e-1 3.174396750098741e-1
      3.214325745790609e-1 3.254756986419847e-1 3.295696789450074e-1 3.337151551808793e-1
      3.379127750886970e-1 3.421631945551119e-1 3.464670777168117e-1 3.508250970642983e-1
      3.552379335469597e-1 3.597062766794749e-1 3.642308246495501e-1 3.688122844270096e-1
      3.734513718742657e-1 3.781488118581693e-1 3.829053383632756e-1 3.877216946065286e-1
      3.925986331533892e-1 3.975369160354288e-1 4.025373148693935e-1 4.076006109777748e-1
      4.127275955108922e-1 4.179190695705081e-1 4.231758443350083e-1 4.284987411861430e-1
      4.338885918373753e-1 4.393462384638363e-1 4.448725338339133e-1 4.504683414425029e-1
      4.561345356459271e-1 4.618720017985588e-1 4.676816363911583e-1 4.735643471909487e-1
      4.795210533834627e-1 4.855526857161602e-1 4.916601866438654e-1 4.978445104760251e-1
      5.041066235258183e-1 5.104475042611512e-1 5.168681434575374e-1 5.233695443529154e-1
      5.299527228044029e-1 5.366187074470250e-1 5.433685398544458e-1 5.502032747017099e-1
      5.571239799300432e-1 5.641317369137192e-1 5.712276406290220e-1 5.784127998253457e-1
      5.856883371984311e-1 5.930553895657957e-1 6.005151080443618e-1 6.080686582303162e-1
      6.157172203812454e-1 6.234619896005446e-1 6.313041760241621e-1 6.392450050096828e-1
      6.472857173277893e-1 6.554275693561423e-1 6.636718332756838e-1 6.720197972694255e-1
      6.804727657237266e-1 6.890320594321036e-1 6.976990158016145e-1 7.064749890618229e-1
      7.153613504764067e-1 7.243594885574177e-1 7.334708092822354e-1 7.426967363132627e-1
      7.520387112203658e-1 7.614981937061317e-1 7.710766618339457e-1 7.807756122589376e-1
      7.905965604618467e-1 8.005410409858078e-1 8.106106076761360e-1 8.208068339231154e-1
      8.311313129078382e-1 8.415856578511542e-1 8.521715022657272e-1 8.628905002112857e-1
      8.737443265530679e-1 8.847346772235195e-1 8.958632694872952e-1 9.071318422095748e-1
      9.185421561277735e-1 9.300959941266576e-1 9.417951615169173e-1 9.536414863172627e-1
      9.656368195400423e-1 9.777830354804783e-1 9.900820320095249e-1 1.002535730870409e0
      1.015146077978918e0 1.027915043727440e0 1.040844623292854e0 1.053936836948274e0
      1.067193730378717e0 1.080617375000755e0 1.094209868286169e0 1.107973334089690e0
      1.121909922980853e0 1.136021812580024e0 1.150311207898667e0 1.164780341683868e0
      1.179431474767221e0 1.194266896418081e0 1.209288924701259e0 1.224499906839240e0
      1.239902219578928e0 1.255498269563026e0 1.271290493706076e0 1.287281359575226e0
      1.303473365775806e0 1.319869042341724e0 1.336470951130802e0 1.353281686225068e0
      1.370303874336077e0 1.387540175215358e0 1.404993282069987e0 1.422665921983420e0
      1.440560856341602e0 1.458680881264429e0 1.477028828042665e0 1.495607563580318e0
      1.514419990842618e0 1.533469049309602e0 1.552757715435404e0 1.572289003113356e0
      1.592065964146889e0 1.612091688726403e0 1.632369305912109e0 1.652901984122942e0
      1.673692931631653e0 1.694745397066083e0 1.716062669916790e0 1.737648081051032e0
      1.759505003233208e0 1.781636851651882e0 1.804047084453392e0 1.826739203282211e0
      1.849716753828075e0 1.872983326380000e0 1.896542556387289e0 1.920398125027556e0
      1.944553759781939e0 1.969013235017516e0 1.993780372577050e0 2.018859042376181e0
      2.044253163008080e0 2.069966702355764e0 2.096003678212075e0 2.122368158907455e0
      2.149064263945661e0 2.176096164647409e0 2.203468084802185e0 2.231184301328206e0
      2.259249144940685e0 2.287667000828544e0 2.316442309339573e0 2.345579566674274e0
      2.375083325588391e0 2.404958196104272e0 2.435208846231223e0 2.465840002694865e0
      2.496856451675718e0 2.528263039557044e0 2.560064673682088e0 2.592266323120890e0
      2.624873019446683e0 2.657889857522110e0 2.691321996295299e0 2.725174659605940e0
      2.759453137001561e0 2.794162784563985e0 2.829309025746265e0 2.864897352220097e0
      2.900933324733887e0 2.937422573981667e0 2.974370801482859e0 3.011783780473187e0
      3.049667356806741e0 3.088027449869386e0 3.126870053503720e0 3.166201236945576e0
      3.206027145772390e0 3.246354002863450e0 3.287188109372210e0 3.328535845710901e0
      3.370403672547438e0 3.412798131814949e0 3.455725847733955e0 3.499193527847392e0
      3.543207964068726e0 3.587776033743151e0 3.632904700722236e0 3.678601016452018e0
      3.724872121074785e0 3.771725244544788e0 3.819167707757879e0 3.867206923695465e0
      3.915850398582778e0 3.965105733061722e0 4.014980623378535e0 4.065482862586285e0
      4.116620341762603e0 4.168401051242658e0 4.220833081867641e0 4.273924626249023e0
      4.327683980048618e0 4.382119543274836e0 4.437239821595190e0 4.493053427665295e0
      4.549569082474669e0 4.606795616709342e0 4.664741972131724e0 4.723417202977751e0
      4.782830477371602e0 4.842991078758295e0 4.903908407354177e0 4.965591981615788e0
      5.028051439727110e0 5.091296541105531e0 5.155337167926832e0 5.220183326669226e0
      5.285845149676959e0 5.352332896743474e0 5.419656956714501e0 5.487827849111402e0
      5.556856225774790e0 5.626752872528967e0 5.697528710867204e0 5.769194799658216e0
      5.841762336874202e0 5.915242661340474e0 5.989647254507233e0 6.064987742243553e0
      6.141275896653901e0 6.218523637917634e0 6.296743036151466e0 6.375946313295519e0
      6.456145845023001e0 6.537354162673886e0 6.619583955213051e0 6.702848071212855e0
      6.787159520860834e0 6.872531477992545e0 6.958977282149954e0 7.046510440665861e0
      7.135144630774345e0 7.224893701747953e0 7.315771677061631e0 7.407792756583891e0
      7.500971318795652e0 7.595321923036806e0 7.690859311781238e0 7.787598412940323e0
      7.885554342195408e0 7.984742405359761e0 8.085178100770021e0 8.186877121707949e0
      8.289855358852490e0 8.394128902762677e0 8.499714046391926e0 8.606627287633710e0
      8.714885331899506e0 8.824505094728998e0 8.935503704433122e0 9.047898504770503e0
      9.161707057657329e0 9.276947145911555e0 9.393636776031439e0 9.511794181009064e0
      9.631437823179384e0 9.752586397104874e0 9.875258832496700e0 9.999474297172492e0
      1.012525220005129e1 1.025261219418635e1 1.038157417983583e1 1.051215830757239e1
      1.064438498143167e1 1.077827486210046e1 1.091384887014504e1 1.105112818927996e1
      1.119013426967815e1 1.133088883132250e1 1.147341386739960e1 1.161773164773634e1
      1.176386472227948e1 1.191183592461924e1 1.206166837555706e1 1.221338548671820e1
      1.236701096420998e1 1.252256881232579e1 1.268008333729588e1 1.283957915108527e1
      1.300108117523933e1 1.316461464477794e1 1.333020511213840e1 1.349787845116814e1
      1.366766086116754e1 1.383957887098356e1 1.401365934315502e1 1.418992947810985e1
      1.436841681841526e1 1.454914925308135e1 1.473215502191868e1 1.491746271995101e1
      1.510510130188313e1 1.529510008662523e1 1.548748876187401e1 1.568229738875135e1
      1.587955640650159e1 1.607929663724753e1 1.628154929080663e1 1.648634596956750e1
      1.669371867342783e1 1.690369980479454e1 1.711632217364657e1 1.733161900266166e1
      1.754962393240739e1 1.777037102659752e1 1.799389477741469e1 1.822023011089966e1
      1.844941239240881e1 1.868147743213992e1 1.891646149072754e1 1.915440128490895e1
      1.939533399326103e1 1.963929726200967e1 1.988632921091199e1 2.013646843921253e1
      2.038975403167470e1 2.064622556468756e1 2.090592311244998e1 2.116888725323218e1
      2.143515907571610e1 2.170478018541580e1 2.197779271117816e1 2.225423931176581e1
      2.253416318252256e1 2.281760806212265e1 2.310461823940527e1 2.339523856029448e1
      2.368951443480670e1 2.398749184414610e1 2.428921734788904e1 2.459473809125942e1
      2.490410181249491e1 2.521735685030638e1 2.553455215143087e1 2.585573727827943e1
      2.618096241668167e1 2.651027838372705e1 2.684373663570547e1 2.718138927614727e1
      2.752328906396439e1 2.786948942169436e1 2.822004444384735e1 2.857500890535881e1
      2.893443827014810e1 2.929838869978461e1 2.966691706226355e1 3.004008094089123e1
      3.041793864328294e1 3.080054921047350e1 3.118797242614234e1 3.158026882595525e1
      3.197749970702271e1 3.237972713747812e1 3.278701396617589e1 3.319942383251151e1
      3.361702117636578e1 3.403987124817315e1 3.446804011911770e1 3.490159469145670e1