<?xml version="1.0" encoding="UTF-8"?>
<UPF version="2.0.1">
  <PP_INFO><![CDATA[
Generated using "atomic" code by A. Dal Corso  v.6.3MaX
Author: MS
Generation date: 20Mar2023
Pseudopotential type: PAW
Element: Lr
Functional:  SLA  PW   PBX  PBC
    Suggested minimum cutoff for wavefunctions:  50. Ry
    Suggested minimum cutoff for charge density: 389. Ry
    The Pseudo was generated with a Scalar-Relativistic Calculation
    Local Potential according to Troullier-Martins recipe, cutoff radius:   1.1500
    Pseudopotential contains additional information for GIPAW reconstruction.
    Valence configuration:
    nl pn  l   occ       Rcut    Rcut US       E pseu
    6S  1  0  2.00      1.100      1.500    -5.218088
    7S  2  0  2.00      1.100      1.500    -0.381759
    6P  2  1  6.00      1.200      2.000    -2.187963
    6D  3  2  1.00      1.400      2.100    -0.095506
    5F  4  3 14.00      1.200      1.800    -0.858842
    Generation configuration:
    6S  1  0  2.00      1.100      1.500    -5.218139
    7S  2  0  2.00      1.100      1.500    -0.381772
    6P  2  1  6.00      1.200      2.000    -2.188001
    7P  3  1  0.00      1.200      2.000     2.000000
    6D  3  2  1.00      1.400      2.100    -0.095517
    6D  3  2  0.00      1.400      2.100     3.000000
    5F  4  3 14.00      1.200      1.800    -0.858919
    5F  4  3  0.00      1.200      1.850     1.200000
    Pseudization used: troullier-martins
]]>
    <PP_INPUTFILE><![CDATA[
 &input
   title='Lawrencium',
   atom = 'Lr'
   rel=1,
   config='[Rn] 6d1.0 7s2.0 7p0.0 5f14.0',
   iswitch=3,
   dft='PBE'
 /
 &inputp
   lpaw=.true.,
   pseudotype=3,
   file_pseudopw='Lr.pbe-spn-kjpaw_MS.UPF',
   author='MS',
   lloc=-2,
   rcloc=1.15,
   which_augfun='PSQ',
   rmatch_augfun_nc=.true.,
   nlcc=.true.,
   new_core_ps=.true.,
   rcore=0.95,
   tm=.true.
   lgipaw_reconstruction=.true.,
   use_paw_as_gipaw=.true.,
 /
8
6S  1  0  2.00  0.00  1.10  1.50  0.0
7S  2  0  2.00  0.00  1.10  1.50  0.0
6P  2  1  6.00  0.00  1.20  2.00  0.0
7P  3  1  0.00  2.00  1.20  2.00  0.0
6D  3  2  1.00  0.00  1.40  2.10  0.0
6D  3  2  0.00  3.00  1.40  2.10  0.0
5F  4  3 14.00  0.00  1.20  1.80  0.0
5F  4  3  0.00  1.20  1.20  1.85  0.0
]]></PP_INPUTFILE>
  </PP_INFO>
  <!--
 END OF HUMAN READABLE SECTION 
-->
  <PP_HEADER generated="Generated using &quot;atomic&quot; code by A. Dal Corso  v.6.3MaX" author="MS" date="20Mar2023" comment="" element="Lr" pseudo_type="PAW" relativistic="scalar" is_ultrasoft="true" is_paw="true" is_coulomb="false" has_so="false" has_wfc="true" has_gipaw="true" paw_as_gipaw="true" core_correction="true" functional=" SLA  PW   PBX  PBC" z_valence="2.500000000000e1" total_psenergy="-1.562203167046e3" wfc_cutoff="4.987614180031e1" rho_cutoff="3.888699316402e2" l_max="3" l_max_rho="6" l_local="-2" mesh_size="1301" number_of_wfc="5" number_of_proj="8"/>
  <PP_MESH dx="1.250000000000e-2" mesh="1301" xmin="-7.000000000000e0" rmax="1.000000000000e2" zmesh="1.030000000000e2">
    <PP_R>
      8.853222966548701e-6 8.964582802611865e-6 9.077343372976527e-6 9.191522296711202e-6
      9.307137414505046e-6 9.424206791455426e-6 9.542748719890666e-6 9.662781722228265e-6
      9.784324553869032e-6 9.907396206127713e-6 1.003201590920036e-5 1.015820313516911e-5
      1.028597760104476e-5 1.041535927184754e-5 1.054636836372677e-5 1.067902534711960e-5
      1.081335094994955e-5 1.094936616086536e-5 1.108709223252046e-5 1.122655068489377e-5
      1.136776330865218e-5 1.151075216855546e-5 1.165553960690389e-5 1.180214824702927e-5
      1.195060099682991e-5 1.210092105235000e-5 1.225313190140402e-5 1.240725732724684e-5
      1.256332141228979e-5 1.272134854186369e-5 1.288136340802905e-5 1.304339101343424e-5
      1.320745667522227e-5 1.337358602898657e-5 1.354180503277669e-5 1.371213997115419e-5
      1.388461745929976e-5 1.405926444717180e-5 1.423610822371751e-5 1.441517642113677e-5
      1.459649701919973e-5 1.478009834961875e-5 1.496600910047524e-5 1.515425832070225e-5
      1.534487542462347e-5 1.553789019654917e-5 1.573333279543017e-5 1.593123375957016e-5
      1.613162401139742e-5 1.633453486229652e-5 1.653999801750072e-5 1.674804558104604e-5
      1.695871006078757e-5 1.717202437347884e-5 1.738802184991524e-5 1.760673624014190e-5
      1.782820171872726e-5 1.805245289010292e-5 1.827952479397066e-5 1.850945291077744e-5
      1.874227316725932e-5 1.897802194205502e-5 1.921673607139025e-5 1.945845285483339e-5
      1.970321006112363e-5 1.995104593407242e-5 2.020199919853912e-5 2.045610906648188e-5
      2.071341524308455e-5 2.097395793296073e-5 2.123777784643578e-5 2.150491620590793e-5
      2.177541475228936e-5 2.204931575152822e-5 2.232666200121297e-5 2.260749683725936e-5
      2.289186414068187e-5 2.317980834445023e-5 2.347137444043208e-5 2.376660798642313e-5
      2.406555511326562e-5 2.436826253205630e-5 2.467477754144522e-5 2.498514803502621e-5
      2.529942250882037e-5 2.561765006885361e-5 2.593988043882962e-5 2.626616396789929e-5
      2.659655163852785e-5 2.693109507446105e-5 2.726984654879139e-5 2.761285899212590e-5
      2.796018600085673e-5 2.831188184553561e-5 2.866800147935385e-5 2.902860054672874e-5
      2.939373539199821e-5 2.976346306822469e-5 3.013784134610979e-5 3.051692872302118e-5
      3.090078443213268e-5 3.128946845167987e-5 3.168304151433154e-5 3.208156511667943e-5
      3.248510152884729e-5 3.289371380422050e-5 3.330746578929840e-5 3.372642213367042e-5
      3.415064830011774e-5 3.458021057484204e-5 3.501517607782263e-5 3.545561277330431e-5
      3.590158948041682e-5 3.635317588392796e-5 3.681044254513211e-5 3.727346091287537e-5
      3.774230333471972e-5 3.821704306824741e-5 3.869775429250766e-5 3.918451211960736e-5
      3.967739260644725e-5 4.017647276660618e-5 4.068183058237456e-5 4.119354501693922e-5
      4.171169602672175e-5 4.223636457387155e-5 4.276763263891658e-5 4.330558323357284e-5
      4.385030041371521e-5 4.440186929251139e-5 4.496037605372083e-5 4.552590796516126e-5
      4.609855339234443e-5 4.667840181228335e-5 4.726554382747342e-5 4.786007118004905e-5
      4.846207676611861e-5 4.907165465027975e-5 4.968890008031701e-5 5.031390950208471e-5
      5.094678057457656e-5 5.158761218518521e-5 5.223650446515359e-5 5.289355880522063e-5
      5.355887787146379e-5 5.423256562134076e-5 5.491472731993310e-5 5.560546955639402e-5
      5.630490026060331e-5 5.701312872003157e-5 5.773026559681645e-5 5.845642294505398e-5
      5.919171422830716e-5 5.993625433733497e-5 6.069015960804429e-5 6.145354783966745e-5
      6.222653831316877e-5 6.300925180988239e-5 6.380181063038459e-5 6.460433861360362e-5
      6.541696115616959e-5 6.623980523200802e-5 6.707299941217992e-5 6.791667388497098e-5
      6.877096047623423e-5 6.963599266998736e-5 7.051190562927080e-5 7.139883621726637e-5
      7.229692301868289e-5 7.320630636141044e-5 7.412712833844621e-5 7.505953283009776e-5
      7.600366552646383e-5 7.695967395019897e-5 7.792770747956467e-5 7.890791737176905e-5
      7.990045678660225e-5 8.090548081036708e-5 8.192314648011195e-5 8.295361280816843e-5
      8.399704080699644e-5 8.505359351434398e-5 8.612343601872096e-5 8.720673548519532e-5
      8.830366118151286e-5 8.941438450454504e-5 9.053907900707113e-5 9.167792042489525e-5
      9.283108670430586e-5 9.399875802988051e-5 9.518111685263911e-5 9.637834791855349e-5
      9.759063829741345e-5 9.881817741205696e-5 1.000611570679685e-4 1.013197714832476e-4
      1.025942173189578e-4 1.038846937098537e-4 1.051914022954966e-4 1.065145472517620e-4
      1.078543353227408e-4 1.092109758530453e-4 1.105846808205182e-4 1.119756648693555e-4
      1.133841453436452e-4 1.148103423213264e-4 1.162544786485789e-4 1.177167799746417e-4
      1.191974747870722e-4 1.206967944474475e-4 1.222149732275146e-4 1.237522483457968e-4
      1.253088600046590e-4 1.268850514278396e-4 1.284810688984557e-4 1.300971617974838e-4
      1.317335826427275e-4 1.333905871282732e-4 1.350684341644429e-4 1.367673859182499e-4
      1.384877078543617e-4 1.402296687765814e-4 1.419935408698468e-4 1.437795997427612e-4
      1.455881244706574e-4 1.474193976392034e-4 1.492737053885576e-4 1.511513374580786e-4
      1.530525872315970e-4 1.549777517832585e-4 1.569271319239406e-4 1.589010322482566e-4
      1.608997611821481e-4 1.629236310310772e-4 1.649729580288261e-4 1.670480623869066e-4
      1.691492683445972e-4 1.712769042196035e-4 1.734313024593595e-4 1.756127996929739e-4
      1.778217367838270e-4 1.800584588828338e-4 1.823233154823729e-4 1.846166604708957e-4
      1.869388521882226e-4 1.892902534815340e-4 1.916712317620659e-4 1.940821590625187e-4
      1.965234120951883e-4 1.989953723108277e-4 2.014984259582499e-4 2.040329641446799e-4
      2.065993828968658e-4 2.091980832229589e-4 2.118294711751725e-4 2.144939579132275e-4
      2.171919597685981e-4 2.199238983095628e-4 2.226902004070770e-4 2.254912983014716e-4
      2.283276296699913e-4 2.311996376951833e-4 2.341077711341444e-4 2.370524843886411e-4
      2.400342375761107e-4 2.430534966015549e-4 2.461107332303392e-4 2.492064251619071e-4
      2.523410561044209e-4 2.555151158503428e-4 2.587291003529658e-4 2.619835118039076e-4
      2.652788587115783e-4 2.686156559806366e-4 2.719944249924449e-4 2.754156936865350e-4
      2.788799966431013e-4 2.823878751665289e-4 2.859398773699737e-4 2.895365582610069e-4
      2.931784798283350e-4 2.968662111296125e-4 3.006003283803582e-4 3.043814150439892e-4
      3.082100619229899e-4 3.120868672512240e-4 3.160124367874120e-4 3.199873839097803e-4
      3.240123297119037e-4 3.280879030997530e-4 3.322147408899614e-4 3.363934879093303e-4
      3.406247970955829e-4 3.449093295993880e-4 3.492477548876666e-4 3.536407508481965e-4
      3.580890038955342e-4 3.625932090782682e-4 3.671540701876222e-4 3.717722998674239e-4
      3.764486197254564e-4 3.811837604462118e-4 3.859784619050614e-4 3.908334732838626e-4
      3.957495531880216e-4 4.007274697650248e-4 4.057680008244652e-4 4.108719339595758e-4
      4.160400666702930e-4 4.212732064878677e-4 4.265721711010429e-4 4.319377884838206e-4
      4.373708970248333e-4 4.428723456583437e-4 4.484429939968944e-4 4.540837124656211e-4
      4.597953824382614e-4 4.655788963748686e-4 4.714351579612619e-4 4.773650822502289e-4
      4.833695958045043e-4 4.894496368415473e-4 4.956061553801399e-4 5.018401133888294e-4
      5.081524849362367e-4 5.145442563432603e-4 5.210164263371857e-4 5.275700062077426e-4
      5.342060199651191e-4 5.409255044999650e-4 5.477295097454111e-4 5.546190988411194e-4
      5.615953482994028e-4 5.686593481734326e-4 5.758122022275604e-4 5.830550281097858e-4
      5.903889575263880e-4 5.978151364187596e-4 6.053347251424608e-4 6.129488986485279e-4
      6.206588466670638e-4 6.284657738931316e-4 6.363709001749939e-4 6.443754607047149e-4
      6.524807062111627e-4 6.606879031554387e-4 6.689983339287630e-4 6.774132970528512e-4
      6.859341073828118e-4 6.945620963125942e-4 7.032986119830237e-4 7.121450194924480e-4
      7.211027011100379e-4 7.301730564917712e-4 7.393575028991294e-4 7.486574754205506e-4
      7.580744271956618e-4 7.676098296423367e-4 7.772651726866076e-4 7.870419649954684e-4
      7.969417342126096e-4 8.069660271971122e-4 8.171164102651495e-4 8.273944694347268e-4
      8.378018106734999e-4 8.483400601497125e-4 8.590108644862847e-4 8.698158910181041e-4
      8.807568280525491e-4 8.918353851332903e-4 9.030532933074126e-4 9.144123053958902e-4
      9.259141962674724e-4 9.375607631160083e-4 9.493538257412625e-4 9.612952268332650e-4
      9.733868322602305e-4 9.856305313601075e-4 9.980282372357907e-4 1.010581887054045e-3
      1.023293442348197e-3 1.036164889324624e-3 1.049198239173100e-3 1.062395528381058e-3
      1.075758819051786e-3 1.089290199226638e-3 1.102991783211299e-3 1.116865711906140e-3
      1.130914153140748e-3 1.145139302012646e-3 1.159543381230288e-3 1.174128641460356e-3
      1.188897361679436e-3 1.203851849530110e-3 1.218994441681527e-3 1.234327504194520e-3
      1.249853432891303e-3 1.265574653729822e-3 1.281493623182818e-3 1.297612828621656e-3
      1.313934788704978e-3 1.330462053772257e-3 1.347197206242284e-3 1.364142861016681e-3
      1.381301665888482e-3 1.398676301955857e-3 1.416269484041043e-3 1.434083961114533e-3
      1.452122516724613e-3 1.470387969432298e-3 1.488883173251733e-3 1.507611018096146e-3
      1.526574430229395e-3 1.545776372723207e-3 1.565219845920164e-3 1.584907887902509e-3
      1.604843574966860e-3 1.625030022104879e-3 1.645470383490002e-3 1.666167852970280e-3
      1.687125664567429e-3 1.708347092982151e-3 1.729835454105810e-3 1.751594105538552e-3
      1.773626447113930e-3 1.795935921430139e-3 1.818526014387932e-3 1.841400255735294e-3
      1.864562219618973e-3 1.888015525142949e-3 1.911763836933923e-3 1.935810865713934e-3
      1.960160368880151e-3 1.984816151091982e-3 2.009782064865561e-3 2.035062011175707e-3
      2.060659940065467e-3 2.086579851263308e-3 2.112825794808088e-3 2.139401871681883e-3
      2.166312234450775e-3 2.193561087913698e-3 2.221152689759442e-3 2.249091351231931e-3
      2.277381437803863e-3 2.306027369858817e-3 2.335033623381963e-3 2.364404730659425e-3
      2.394145280986472e-3 2.424259921384599e-3 2.454753357327635e-3 2.485630353476991e-3
      2.516895734426132e-3 2.548554385454441e-3 2.580611253290551e-3 2.613071346885281e-3
      2.645939738194298e-3 2.679221562970613e-3 2.712922021567063e-3 2.747046379748864e-3
      2.781599969516408e-3 2.816588189938402e-3 2.852016507995465e-3 2.887890459434376e-3
      2.924215649633032e-3 2.960997754476304e-3 2.998242521242911e-3 3.035955769503436e-3
      3.074143392029645e-3 3.112811355715251e-3 3.151965702508250e-3 3.191612550354992e-3
      3.231758094156113e-3 3.272408606734509e-3 3.313570439815475e-3 3.355250025019170e-3
      3.397453874865586e-3 3.440188583792125e-3 3.483460829183998e-3 3.527277372417587e-3
      3.571645059916916e-3 3.616570824223428e-3 3.662061685079194e-3 3.708124750523778e-3
      3.754767218004869e-3 3.801996375502903e-3 3.849819602669834e-3 3.898244371982202e-3
      3.947278249908731e-3 3.996928898092610e-3 4.047204074548626e-3 4.098111634875393e-3
      4.149659533482785e-3 4.201855824834830e-3 4.254708664708248e-3 4.308226311466795e-3
      4.362417127351667e-3 4.417289579788094e-3 4.472852242708409e-3 4.529113797891735e-3
      4.586083036320531e-3 4.643768859554215e-3 4.702180281120026e-3 4.761326427921420e-3
      4.821216541664174e-3 4.881859980300397e-3 4.943266219490771e-3 5.005444854085090e-3
      5.068405599621518e-3 5.132158293844638e-3 5.196712898242625e-3 5.262079499603760e-3
      5.328268311592491e-3 5.395289676345357e-3 5.463154066086952e-3 5.531872084766243e-3
      5.601454469713464e-3 5.671912093317825e-3 5.743255964726364e-3 5.815497231564133e-3
      5.888647181676053e-3 5.962717244890659e-3 6.037718994806022e-3 6.113664150598158e-3
      6.190564578852173e-3 6.268432295416427e-3 6.347279467280071e-3 6.427118414474119e-3
      6.507961611996502e-3 6.589821691761309e-3 6.672711444572546e-3 6.756643822122738e-3
      6.841631939016636e-3 6.927689074820416e-3 7.014828676136629e-3 7.103064358705260e-3
      7.192409909531241e-3 7.282879289038662e-3 7.374486633252126e-3 7.467246256005544e-3
      7.561172651178688e-3 7.656280494961910e-3 7.752584648149295e-3 7.850100158460707e-3
      7.948842262893033e-3 8.048826390100974e-3 8.150068162807839e-3 8.252583400246587e-3
      8.356388120631635e-3 8.461498543661733e-3 8.567931093054327e-3 8.675702399111804e-3
      8.784829301319999e-3 8.895328850979400e-3 9.007218313869453e-3 9.120515172946366e-3
      9.235237131074893e-3 9.351402113794391e-3 9.469028272119740e-3 9.588133985377498e-3
      9.708737864077667e-3 9.830858752821694e-3 9.954515733246884e-3 1.007972812700801e-2
      1.020651549879636e-2 1.033489765939669e-2 1.046489466878283e-2 1.059652683925196e-2
      1.072981473859853e-2 1.086477919332798e-2 1.100144129191094e-2 1.113982238807838e-2
      1.127994410415809e-2 1.142182833445331e-2 1.156549724866368e-2 1.171097329534933e-2
      1.185827920543854e-2 1.200743799577947e-2 1.215847297273655e-2 1.231140773583224e-2
      1.246626618143438e-2 1.262307250649021e-2 1.278185121230701e-2 1.294262710838062e-2
      1.310542531627188e-2 1.327027127353200e-2 1.343719073767720e-2 1.360620979021334e-2
      1.377735484071124e-2 1.395065263093326e-2 1.412613023901166e-2 1.430381508367977e-2
      1.448373492855603e-2 1.466591788648226e-2 1.485039242391631e-2 1.503718736537993e-2
      1.522633189796281e-2 1.541785557588295e-2 1.561178832510470e-2 1.580816044801467e-2
      1.600700262815659e-2 1.620834593502566e-2 1.641222182892322e-2 1.661866216587248e-2
      1.682769920259608e-2 1.703936560155630e-2 1.725369443605862e-2 1.747071919541951e-2
      1.769047379019913e-2 1.791299255750001e-2 1.813831026633226e-2 1.836646212304631e-2
      1.859748377683395e-2 1.883141132529859e-2 1.906828132009561e-2 1.930813077264361e-2
      1.955099715990755e-2 1.979691843025453e-2 2.004593300938337e-2 2.029807980632871e-2
      2.055339821954053e-2 2.081192814304039e-2 2.107370997265479e-2 2.133878461232722e-2
      2.160719348050941e-2 2.187897851663309e-2 2.215418218766315e-2 2.243284749473306e-2
      2.271501797986400e-2 2.300073773276837e-2 2.329005139773882e-2 2.358300418062416e-2
      2.387964185589273e-2 2.418001077378478e-2 2.448415786755485e-2 2.479213066080511e-2
      2.510397727491114e-2 2.541974643654079e-2 2.573948748526804e-2 2.606325038128225e-2
      2.639108571319461e-2 2.672304470594279e-2 2.705917922879468e-2 2.739954180345339e-2
      2.774418561226375e-2 2.809316450652195e-2 2.844653301489034e-2 2.880434635191717e-2
      2.916666042666439e-2 2.953353185144336e-2 2.990501795066050e-2 3.028117676977471e-2
      3.066206708436669e-2 3.104774840932305e-2 3.143828100813557e-2 3.183372590231722e-2
      3.223414488093739e-2 3.263960051027603e-2 3.305015614360017e-2 3.346587593106288e-2
      3.388682482972661e-2 3.431306861371333e-2 3.474467388448136e-2 3.518170808123244e-2
      3.562423949144899e-2 3.607233726156411e-2 3.652607140776616e-2 3.698551282693847e-2
      3.745073330773760e-2 3.792180554181024e-2 3.839880313515123e-2 3.888180061960514e-2
      3.937087346451142e-2 3.986609808849720e-2 4.036755187141758e-2 4.087531316644622e-2
      4.138946131231866e-2 4.191007664572859e-2 4.243724051388114e-2 4.297103528720328e-2
      4.351154437221422e-2 4.405885222455833e-2 4.461304436220087e-2 4.517420737879096e-2
      4.574242895719170e-2 4.631779788318060e-2 4.690040405932314e-2 4.749033851901948e-2
      4.808769344072925e-2 4.869256216237440e-2 4.930503919592311e-2 4.992522024215817e-2
      5.055320220562962e-2 5.118908320979699e-2 5.183296261236096e-2 5.248494102078802e-2
      5.314512030803112e-2 5.381360362844684e-2 5.449049543391412e-2 5.517590149015483e-2
      5.586992889325952e-2 5.657268608642213e-2 5.728428287688367e-2 5.800483045309051e-2
      5.873444140206747e-2 5.947322972700957e-2 6.022131086509584e-2 6.097880170552589e-2
      6.174582060778475e-2 6.252248742013654e-2 6.330892349835060e-2 6.410525172466441e-2
      6.491159652698322e-2 6.572808389832305e-2 6.655484141649692e-2 6.739199826404889e-2
      6.823968524843982e-2 6.909803482248540e-2 6.996718110505307e-2 7.084725990201783e-2
      7.173840872748204e-2 7.264076682526297e-2 7.355447519064901e-2 7.447967659243133e-2
      7.541651559521144e-2 7.636513858198923e-2 7.732569377703670e-2 7.829833126905704e-2
      7.928320303463734e-2 8.028046296199490e-2 8.129026687502199e-2 8.231277255763478e-2
      8.334813977842616e-2 8.439653031563109e-2 8.545810798240401e-2 8.653303865241492e-2
      8.762149028576827e-2 8.872363295524590e-2 8.983963887288242e-2 9.096968241687316e-2
      9.211394015882064e-2 9.327259089132534e-2 9.444581565592124e-2 9.563379777136484e-2
      9.683672286227891e-2 9.805477888815586e-2 9.928815617272825e-2 1.005370474337058e-1
      1.018016478128890e-1 1.030821549066603e-1 1.043787687968578e-1 1.056916920820403e-1
      1.070211299091418e-1 1.083672900055278e-1 1.097303827114523e-1 1.111106210129235e-1
      1.125082205749845e-1 1.139233997754098e-1 1.153563797388291e-1 1.168073843712771e-1
      1.182766403951794e-1 1.197643773847793e-1 1.212708278020079e-1 1.227962270328080e-1
      1.243408134239130e-1 1.259048283200887e-1 1.274885161018450e-1 1.290921242236193e-1
      1.307159032524438e-1 1.323601069070948e-1 1.340249920977388e-1 1.357108189660743e-1
      1.374178509259787e-1 1.391463547046694e-1 1.408966003843779e-1 1.426688614445528e-1
      1.444634148045908e-1 1.462805408671048e-1 1.481205235617396e-1 1.499836503895342e-1
      1.518702124678463e-1 1.537805045758391e-1 1.557148252005405e-1 1.576734765834841e-1
      1.596567647679326e-1 1.616649996467004e-1 1.636984950105733e-1 1.657575685973385e-1
      1.678425421414336e-1 1.699537414242164e-1 1.720914963248703e-1 1.742561408719481e-1
      1.764480132955637e-1 1.786674560802434e-1 1.809148160184371e-1 1.831904442647076e-1
      1.854946963905988e-1 1.878279324401924e-1 1.901905169863691e-1 1.925828191877702e-1
      1.950052128464822e-1 1.974580764664430e-1 1.999417933125829e-1 2.024567514707130e-1
      2.050033439081614e-1 2.075819685351781e-1 2.101930282671075e-1 2.128369310873444e-1
      2.155140901110841e-1 2.182249236498702e-1 2.209698552769585e-1 2.237493138935010e-1
      2.265637337955604e-1 2.294135547419733e-1 2.322992220230597e-1 2.352211865302037e-1
      2.381799048263046e-1 2.411758392171150e-1 2.442094578234796e-1 2.472812346544766e-1
      2.503916496814860e-1 2.535411889131844e-1 2.567303444714835e-1 2.599596146684287e-1
      2.632295040840574e-1 2.665405236452437e-1 2.698931907055310e-1 2.732880291259675e-1
      2.767255693569642e-1 2.802063485211751e-1 2.837309104974266e-1 2.872998060056988e-1
      2.909135926931750e-1 2.945728352213782e-1 2.982781053543974e-1 3.020299820482297e-1
      3.058290515412424e-1 3.096759074457718e-1 3.135711508408808e-1 3.175153903662735e-1
      3.215092423174011e-1 3.255533307417569e-1 3.296482875363840e-1 3.337947525466139e-1
      3.379933736660393e-1 3.422448069377528e-1 3.465497166568535e-1 3.509087754742421e-1
      3.553226645017285e-1 3.597920734184524e-1 3.643177005786505e-1 3.689002531207748e-1
      3.735404470779819e-1 3.782390074900196e-1 3.829966685165102e-1 3.878141735516692e-1
      3.926922753404605e-1 3.976317360962117e-1 4.026333276197167e-1 4.076978314198254e-1
      4.128260388355610e-1 4.180187511597666e-1 4.232767797643059e-1 4.286009462268475e-1
      4.339920824592316e-1 4.394510308374637e-1 4.449786443333351e-1 4.505757866476988e-1
      4.562433323454306e-1 4.619821669920748e-1 4.677931872922215e-1 4.736773012296161e-1
      4.796354282090309e-1 4.856684991999302e-1 4.917774568819288e-1 4.979632557920942e-1
      5.042268624740921e-1 5.105692556292083e-1 5.169914262692786e-1 5.234943778715298e-1
      5.300791265353809e-1 5.367467011412086e-1 5.434981435111083e-1 5.503345085716881e-1
      5.572568645188955e-1 5.642662929849319e-1 5.713638892072569e-1 5.785507621997183e-1
      5.858280349258452e-1 5.931968444743045e-1 6.006583422365814e-1 6.082136940868827e-1
      6.158640805643043e-1 6.236106970573005e-1 6.314547539904565e-1 6.393974770136282e-1
      6.474401071934487e-1 6.555839012072441e-1 6.638301315394002e-1 6.721800866801811e-1
      6.806350713270666e-1 6.891964065886111e-1 6.978654301908648e-1 7.066434966864053e-1
      7.155319776659791e-1 7.245322619728244e-1 7.336457559196765e-1 7.428738835085039e-1
      7.522180866530191e-1 7.616798254039724e-1 7.712605781772945e-1 7.809618419851001e-1
      7.907851326695936e-1 8.007319851399332e-1 8.108039536120513e-1 8.210026118515145e-1
      8.313295534194239e-1 8.417863919214067e-1 8.523747612597566e-1 8.630963158887216e-1
      8.739527310730272e-1 8.849457031496353e-1 8.960769497927950e-1 9.073482102824443e-1
      9.187612457759627e-1 9.303178395833676e-1 9.420197974459558e-1 9.538689478184473e-1
      9.658671421546984e-1 9.780162551969818e-1 9.903181852689290e-1 1.002774854572144e0
      1.015388209486546e0 1.028160220874505e0 1.041092884388782e0 1.054188220784365e0
      1.067448276234210e0 1.080875122648955e0 1.094470858000673e0 1.108237606650670e0
      1.122177519681434e0 1.136292775232737e0 1.150585578841974e0 1.165058163788792e0
      1.179712791444029e0 1.194551751623073e0 1.209577362943645e0 1.224791973188079e0
      1.240197959670185e0 1.255797729606689e0 1.271593720493384e0 1.287588400485987e0
      1.303784268785782e0 1.320183856030147e0 1.336789724687949e0 1.353604469459953e0
      1.370630717684243e0 1.387871129746738e0 1.405328399496904e0 1.423005254668652e0
      1.440904457306569e0 1.459028804197485e0 1.477381127307472e0 1.495964294224358e0
      1.514781208605778e0 1.533834810632888e0 1.553128077469774e0 1.572664023728625e0
      1.592445701940796e0 1.612476203033749e0 1.632758656814033e0 1.653296232456322e0
      1.674092138998586e0 1.695149625843538e0 1.716471983266334e0 1.738062542928706e0
      1.759924678399528e0 1.782061805681942e0 1.804477383747129e0 1.827174915074762e0
      1.850157946200291e0 1.873430068269093e0 1.896994917597582e0 1.920856176241415e0
      1.945017572570795e0 1.969482881853057e0 1.994255926842557e0 2.019340578377967e0
      2.044740755987133e0 2.070460428499476e0 2.096503614666156e0 2.122874383788002e0
      2.149576856351332e0 2.176615204671818e0 2.203993653546390e0 2.231716480913387e0
      2.259788018520993e0 2.288212652604064e0 2.316994824569513e0 2.346139031690260e0
      2.375649827807965e0 2.405531824044566e0 2.435789689522763e0 2.466428152095605e0
      2.497451999085194e0 2.528866078030746e0 2.560675297446012e0 2.592884627586234e0
      2.625499101224786e0 2.658523814439520e0 2.691963927409068e0 2.725824665219122e0
      2.760111318678844e0 2.794829245147605e0 2.829983869372040e0 2.865580684333711e0
      2.901625252107385e0 2.938123204730095e0 2.975080245081210e0 3.012502147773460e0
      3.050394760055283e0 3.088764002724447e0 3.127615871053170e0 3.166956435724935e0
      3.206791843782999e0 3.247128319590923e0 3.287972165805122e0 3.329329764359654e0
      3.371207577463447e0 3.413612148609988e0 3.456550103599797e0 3.500028151575706e0
      3.544053086071154e0 3.588631786071740e0 3.633771217090021e0 3.679478432253937e0
      3.725760573408857e0 3.772624872233484e0 3.820078651369868e0 3.868129325567534e0
      3.916784402842088e0 3.966051485648355e0 4.015938272068241e0 4.066452557013634e0
      4.117602233444316e0 4.169395293601300e0 4.221839830255618e0 4.274944037972805e0
      4.328716214393374e0 4.383164761529277e0 4.438298187076786e0 4.494125105745821e0
      4.550654240605990e0 4.607894424449640e0 4.665854601171936e0 4.724543827168420e0
      4.783971272750065e0 4.844146223576137e0 4.905078082105141e0 4.966776369063925e0
      5.029250724935359e0 5.092510911464665e0 5.156566813184671e0 5.221428438960364e0
      5.287105923552713e0 5.353609529202318e0 5.420949647232874e0 5.489136799674807e0
      5.558181640909435e0 5.628094959333654e0 5.698887679045717e0 5.770570861552119e0
      5.843155707495944e0 5.916653558407069e0 5.991075898474210e0 6.066434356339427e0
      6.142740706915088e0 6.220006873223697e0 6.298244928260961e0 6.377467096882134e0
      6.457685757712251e0 6.538913445080285e0 6.621162850977626e0 6.704446827041305e0
      6.788778386561998e0 6.874170706517470e0 6.960637129631455e0 7.048191166458460e0
      7.136846497494893e0 7.226616975316573e0 7.317516626743314e0 7.409559655030598e0
      7.502760442088834e0 7.597133550730646e0 7.692693726946233e0 7.789455902207563e0
      7.887435195801398e0 7.986646917191674e0 8.087106568411736e0 8.188829846486442e0
      8.291832645884966e0 8.396131061004288e0 8.501741388683941e0 8.608680130752516e0
      8.716963996606003e0 8.826609905818760e0 8.937634990787194e0 9.050056599406682e0
      9.163892297782327e0 9.279159872973569e0 9.395877335773559e0 9.514062923523342e0
      9.633735102961420e0 9.754912573109339e0 9.877614268193312e0 1.000185936060285e1
      1.012766726388645e1 1.025505763578491e1 1.038405038130305e1 1.051466565581977e1
      1.064692386823746e1 1.078084568417092e1 1.091645202917632e1 1.105376409202098e1
      1.119280332799406e1 1.133359146225908e1 1.147615049324847e1 1.162050269610081e1
      1.176667062614154e1 1.191467712240706e1 1.206454531121355e1 1.221629860977045e1
      1.236996072983936e1 1.252555568143921e1 1.268310777659770e1 1.284264163315027e1
      1.300418217858660e1 1.316775465394552e1 1.333338461775915e1 1.350109795004626e1
      1.367092085635627e1 1.384287987186381e1 1.401700186551486e1 1.419331404422524e1
      1.437184395713152e1 1.455261949989585e1 1.473566891906459e1 1.492102081648187e1
      1.510870415375880e1 1.529874825679862e1 1.549118282037912e1 1.568603791279238e1
      1.588334398054298e1 1.608313185310549e1 1.628543274774139e1 1.649027827437711e1
      1.669770044054295e1 1.690773165637434e1 1.712040473967611e1 1.733575292105017e1
      1.755380984908799e1 1.777460959562827e1 1.799818666108057e1 1.822457597981628e1
      1.845381292562699e1 1.868593331725192e1 1.892097342397451e1 1.915896997128959e1
      1.939996014664195e1 1.964398160523671e1 1.989107247592328e1 2.014127136715295e1
      2.039461737301143e1 2.065115007932766e1 2.091090956985883e1 2.117393643255388e1
      2.144027176589525e1 2.170995718532058e1 2.198303482972541e1 2.225954736804717e1
      2.253953800593259e1 2.282305049248853e1 2.311012912711773e1 2.340081876644101e1
      2.369516483130583e1 2.399321331388374e1 2.429501078485655e1 2.460060440069305e1
      2.491004191101751e1 2.522337166607040e1 2.554064262426346e1 2.586190435982944e1
      2.618720707056806e1 2.651660158568979e1 2.685013937375767e1 2.718787255072974e1
      2.752985388810207e1 2.787613682115429e1 2.822677545729930e1 2.858182458453729e1
      2.894133968001678e1 2.930537691870295e1 2.967399318215485e1 3.004724606741373e1
      3.042519389600219e1 3.080789572303744e1 3.119541134645862e1 3.158780131637018e1
      3.198512694450336e1 3.238745031379581e1 3.279483428809257e1 3.320734252196852e1