<?xml version="1.0" encoding="UTF-8"?>
<UPF version="2.0.1">
  <PP_INFO><![CDATA[
Generated using "atomic" code by A. Dal Corso  v.6.3MaX
Author: MS
Generation date: 20Mar2023
Pseudopotential type: PAW
Element: Md
Functional:  SLA  PW   PBX  PBC
    Suggested minimum cutoff for wavefunctions:  71. Ry
    Suggested minimum cutoff for charge density: 380. Ry
    The Pseudo was generated with a Scalar-Relativistic Calculation
    Local Potential according to Troullier-Martins recipe, cutoff radius:   1.2000
    Pseudopotential contains additional information for GIPAW reconstruction.
    Valence configuration:
    nl pn  l   occ       Rcut    Rcut US       E pseu
    6S  1  0  2.00      1.150      1.600    -4.557791
    7S  2  0  2.00      1.150      1.600    -0.300308
    6P  2  1  6.00      1.300      2.000    -1.856292
    6D  3  2  0.00      1.400      2.200    -0.027130
    5F  4  3 13.00      1.250      1.800    -0.395817
    Generation configuration:
    6S  1  0  2.00      1.150      1.600    -4.557812
    7S  2  0  2.00      1.150      1.600    -0.300320
    6P  2  1  6.00      1.300      2.000    -1.856311
    7P  3  1  0.00      1.300      2.000     4.500000
    6D  3  2  0.00      1.400      2.200    -0.027138
    6D  3  2  0.00      1.400      2.200     3.000000
    5F  4  3 13.00      1.250      1.800    -0.395843
    5F  4  3  0.00      1.250      1.950     0.600000
    Pseudization used: troullier-martins
]]>
    <PP_INPUTFILE><![CDATA[
 &input
   title='Mendelevium',
   atom = 'Md'
   rel=1,
   config='[Rn] 6d0.0 7s2.0 7p0.0 5f13.0',
   iswitch=3,
   dft='PBE'
 /
 &inputp
   lpaw=.true.,
   pseudotype=3,
   file_pseudopw='Md.pbe-spn-kjpaw_MS.UPF',
   author='MS',
   lloc=-2,
   rcloc=1.20,
   which_augfun='PSQ',
   rmatch_augfun_nc=.true.,
   nlcc=.true.,
   new_core_ps=.true.,
   rcore=0.95,
   tm=.true.
   lgipaw_reconstruction=.true.,
   use_paw_as_gipaw=.true.,
 /
8
6S  1  0  2.00  0.00  1.15  1.60  0.0
7S  2  0  2.00  0.00  1.15  1.60  0.0
6P  2  1  6.00  0.00  1.30  2.00  0.0
7P  3  1  0.00  4.50  1.30  2.00  0.0
6D  3  2  0.00  0.00  1.40  2.20  0.0
6D  3  2  0.00  3.00  1.40  2.20  0.0
5F  4  3 13.00  0.00  1.25  1.80  0.0
5F  4  3  0.00  0.60  1.25  1.95  0.0
]]></PP_INPUTFILE>
  </PP_INFO>
  <!--
 END OF HUMAN READABLE SECTION 
-->
  <PP_HEADER generated="Generated using &quot;atomic&quot; code by A. Dal Corso  v.6.3MaX" author="MS" date="20Mar2023" comment="" element="Md" pseudo_type="PAW" relativistic="scalar" is_ultrasoft="true" is_paw="true" is_coulomb="false" has_so="false" has_wfc="true" has_gipaw="true" paw_as_gipaw="true" core_correction="true" functional=" SLA  PW   PBX  PBC" z_valence="2.300000000000e1" total_psenergy="-1.437500423889e3" wfc_cutoff="7.079260465896e1" rho_cutoff="3.800601250799e2" l_max="3" l_max_rho="6" l_local="-2" mesh_size="1299" number_of_wfc="5" number_of_proj="8"/>
  <PP_MESH dx="1.250000000000e-2" mesh="1299" xmin="-7.000000000000e0" rmax="1.000000000000e2" zmesh="1.010000000000e2">
    <PP_R>
      9.028534312420954e-6 9.142099293752695e-6 9.257092746698834e-6 9.373532639220334e-6
      9.491437165287325e-6 9.610824747721869e-6 9.731714041076621e-6 9.854123934549618e-6
      9.978073554935747e-6 1.010358226961539e-5 1.023066968958056e-5 1.035935567249919e-5
      1.048966032581792e-5 1.062160400990393e-5 1.075520734122632e-5 1.089049119557741e-5
      1.102747671133469e-5 1.116618529276369e-5 1.130663861336245e-5 1.144885861924810e-5
      1.159286753258588e-5 1.173868785506151e-5 1.188634237139704e-5 1.203585415291104e-5
      1.218724656112357e-5 1.234054325140643e-5 1.249576817667935e-5 1.265294559115272e-5
      1.281210005411731e-5 1.297325643378178e-5 1.313643991115833e-5 1.330167598399730e-5
      1.346899047077123e-5 1.363840951470908e-5 1.380995958788118e-5 1.398366749533546e-5
      1.415956037928589e-5 1.433766572335342e-5 1.451801135686043e-5 1.470062545917908e-5
      1.488553656413438e-5 1.507277356446269e-5 1.526236571632624e-5 1.545434264388448e-5
      1.564873434392294e-5 1.584557119054024e-5 1.604488393989412e-5 1.624670373500719e-5
      1.645106211063301e-5 1.665799099818358e-5 1.686752273071855e-5 1.707969004799745e-5
      1.729452610159524e-5 1.751206446008239e-5 1.773233911427000e-5 1.795538448252094e-5
      1.818123541612779e-5 1.840992720475843e-5 1.864149558197008e-5 1.887597673079284e-5
      1.911340728938326e-5 1.935382435674918e-5 1.959726549854651e-5 1.984376875294890e-5
      2.009337263659143e-5 2.034611615058870e-5 2.060203878662900e-5 2.086118053314489e-5
      2.112358188156147e-5 2.138928383262331e-5 2.165832790280084e-5 2.193075613077739e-5
      2.220661108401786e-5 2.248593586541987e-5 2.276877412004887e-5 2.305517004195756e-5
      2.334516838109141e-5 2.363881445028093e-5 2.393615413232182e-5 2.423723388714438e-5
      2.454210075907286e-5 2.485080238417622e-5 2.516338699771147e-5 2.547990344166040e-5
      2.580040117236137e-5 2.612493026823686e-5 2.645354143761832e-5 2.678628602666957e-5
      2.712321602740959e-5 2.746438408583653e-5 2.780984351015359e-5 2.815964827909869e-5
      2.851385305037864e-5 2.887251316920958e-5 2.923568467696482e-5 2.960342431993129e-5
      2.997578955817639e-5 3.035283857452617e-5 3.073463028365652e-5 3.112122434129882e-5
      3.151268115356106e-5 3.190906188636660e-5 3.231042847501137e-5 3.271684363384141e-5
      3.312837086605219e-5 3.354507447361100e-5 3.396701956730430e-5 3.439427207691142e-5
      3.482689876150622e-5 3.526496721988841e-5 3.570854590114585e-5 3.615770411534994e-5
      3.661251204438546e-5 3.707304075291663e-5 3.753936219949117e-5 3.801154924778380e-5
      3.848967567798148e-5 3.897381619831171e-5 3.946404645671574e-5 3.996044305266889e-5
      4.046308354914917e-5 4.097204648475680e-5 4.148741138598594e-5 4.200925877965090e-5
      4.253767020546870e-5 4.307272822879970e-5 4.361451645354858e-5 4.416311953522775e-5
      4.471862319418481e-5 4.528111422899675e-5 4.585068053003213e-5 4.642741109318427e-5
      4.701139603377701e-5 4.760272660064540e-5 4.820149519039370e-5 4.880779536183219e-5
      4.942172185059622e-5 5.004337058394865e-5 5.067283869576881e-5 5.131022454172994e-5
      5.195562771466717e-5 5.260914906013936e-5 5.327089069218634e-5 5.394095600928440e-5
      5.461944971050270e-5 5.530647781186237e-5 5.600214766290206e-5 5.670656796345133e-5
      5.741984878061526e-5 5.814210156597280e-5 5.887343917299104e-5 5.961397587465899e-5
      6.036382738134295e-5 6.112311085886635e-5 6.189194494681743e-5 6.267044977708660e-5
      6.345874699263745e-5 6.425695976651373e-5 6.506521282108528e-5 6.588363244753637e-5
      6.671234652559868e-5 6.755148454353295e-5 6.840117761836170e-5 6.926155851635652e-5
      7.013276167378343e-5 7.101492321790791e-5 7.190818098826624e-5 7.281267455820234e-5
      7.372854525667662e-5 7.465593619034927e-5 7.559499226594022e-5 7.654586021287198e-5
      7.750868860619578e-5 7.848362788980687e-5 7.947083039995208e-5 8.047045038903180e-5
      8.148264404970327e-5 8.250756953928525e-5 8.354538700447058e-5 8.459625860634999e-5
      8.566034854574884e-5 8.673782308888544e-5 8.782885059334909e-5 8.893360153440709e-5
      9.005224853164183e-5 9.118496637592219e-5 9.233193205671611e-5 9.349332478974466e-5
      9.466932604498519e-5 9.586011957502667e-5 9.706589144378047e-5 9.828683005555456e-5
      9.952312618449096e-5 1.007749730043750e-4 1.020425661188193e-4 1.033261035918267e-4
      1.046257859787391e-4 1.059418163575736e-4 1.072744003607540e-4 1.086237462072424e-4
      1.099900647350723e-4 1.113735694342937e-4 1.127744764803305e-4 1.141930047677586e-4
      1.156293759445094e-4 1.170838144465012e-4 1.185565475327091e-4 1.200478053206743e-4
      1.215578208224598e-4 1.230868299810603e-4 1.246350717072673e-4 1.262027879170007e-4
      1.277902235691077e-4 1.293976267036384e-4 1.310252484806034e-4 1.326733432192162e-4
      1.343421684376330e-4 1.360319848931896e-4 1.377430566231447e-4 1.394756509859379e-4
      1.412300387029629e-4 1.430064939008701e-4 1.448052941543982e-4 1.466267205297465e-4
      1.484710576284922e-4 1.503385936320589e-4 1.522296203467469e-4 1.541444332493276e-4
      1.560833315332127e-4 1.580466181552042e-4 1.600345998828304e-4 1.620475873422815e-4
      1.640858950669431e-4 1.661498415465441e-4 1.682397492769216e-4 1.703559448104097e-4
      1.724987588068665e-4 1.746685260853383e-4 1.768655856763766e-4 1.790902808750130e-4
      1.813429592943978e-4 1.836239729201177e-4 1.859336781651922e-4 1.882724359257649e-4
      1.906406116374944e-4 1.930385753326534e-4 1.954667016979483e-4 1.979253701330637e-4
      2.004149648099444e-4 2.029358747328243e-4 2.054884937990074e-4 2.080732208604161e-4
      2.106904597859127e-4 2.133406195244037e-4 2.160241141687403e-4 2.187413630204202e-4
      2.214927906551050e-4 2.242788269889601e-4 2.270999073458310e-4 2.299564725252631e-4
      2.328489688713773e-4 2.357778483426126e-4 2.387435685823453e-4 2.417465929903964e-4
      2.447873907954396e-4 2.478664371283183e-4 2.509842130962866e-4 2.541412058581825e-4
      2.573379087005479e-4 2.605748211147061e-4 2.638524488748068e-4 2.671713041168563e-4
      2.705319054187383e-4 2.739347778812434e-4 2.773804532101170e-4 2.808694697991396e-4
      2.844023728142518e-4 2.879797142787374e-4 2.916020531594781e-4 2.952699554542942e-4
      2.989839942803812e-4 3.027447499638623e-4 3.065528101304642e-4 3.104087697973355e-4
      3.143132314660193e-4 3.182668052165948e-4 3.222701088030042e-4 3.263237677495778e-4
      3.304284154487731e-4 3.345846932601442e-4 3.387932506105548e-4 3.430547450956537e-4
      3.473698425826241e-4 3.517392173142274e-4 3.561635520141551e-4 3.606435379937053e-4
      3.651798752598021e-4 3.697732726243725e-4 3.744244478150998e-4 3.791341275875709e-4
      3.839030478388317e-4 3.887319537223744e-4 3.936215997645675e-4 3.985727499825530e-4
      4.035861780036259e-4 4.086626671861143e-4 4.138030107417813e-4 4.190080118597655e-4
      4.242784838320811e-4 4.296152501806968e-4 4.350191447862120e-4 4.404910120181537e-4
      4.460317068669091e-4 4.516420950773209e-4 4.573230532839617e-4 4.630754691481088e-4
      4.689002414964449e-4 4.747982804614997e-4 4.807705076238611e-4 4.868178561561741e-4
      4.929412709689499e-4 4.991417088582116e-4 5.054201386549941e-4 5.117775413767268e-4
      5.182149103805187e-4 5.247332515183743e-4 5.313335832943578e-4 5.380169370237376e-4
      5.447843569941313e-4 5.516369006286771e-4 5.585756386512609e-4 5.656016552538147e-4
      5.727160482657276e-4 5.799199293253818e-4 5.872144240538488e-4 5.946006722307717e-4
      6.020798279724550e-4 6.096530599122003e-4 6.173215513829055e-4 6.250865006019640e-4
      6.329491208584908e-4 6.409106407028967e-4 6.489723041388551e-4 6.571353708176796e-4
      6.654011162351461e-4 6.737708319307939e-4 6.822458256897286e-4 6.908274217469669e-4
      6.995169609943527e-4 7.083158011900714e-4 7.172253171708065e-4 7.262469010665558e-4
      7.353819625181574e-4 7.446319288975488e-4 7.539982455307953e-4 7.634823759239278e-4
      7.730858019916155e-4 7.828100242887198e-4 7.926565622447583e-4 8.026269544013191e-4
      8.127227586524633e-4 8.229455524881441e-4 8.332969332406972e-4 8.437785183344246e-4
      8.543919455383218e-4 8.651388732219839e-4 8.760209806147257e-4 8.870399680679673e-4
      8.981975573209164e-4 9.094954917695929e-4 9.209355367392424e-4 9.325194797601652e-4
      9.442491308470263e-4 9.561263227816719e-4 9.681529113995055e-4 9.803307758794682e-4
      9.926618190376608e-4 1.005147967624664e-3 1.017791172626598e-3 1.030593409569967e-3
      1.043556678830340e-3 1.056683005944913e-3 1.069974441929003e-3 1.083433063596525e-3
      1.097060973884495e-3 1.110860302181621e-3 1.124833204661027e-3 1.138981864617153e-3
      1.153308492806901e-3 1.167815327795075e-3 1.182504636304154e-3 1.197378713568482e-3
      1.212439883692891e-3 1.227690500015854e-3 1.243132945477201e-3 1.258769632990451e-3
      1.274603005819844e-3 1.290635537962096e-3 1.306869734532973e-3 1.323308132158718e-3
      1.339953299372403e-3 1.356807837015272e-3 1.373874378643122e-3 1.391155590937804e-3
      1.408654174123898e-3 1.426372862390627e-3 1.444314424319083e-3 1.462481663314821e-3
      1.480877418045892e-3 1.499504562886403e-3 1.518366008365629e-3 1.537464701622802e-3
      1.556803626867600e-3 1.576385805846439e-3 1.596214298314622e-3 1.616292202514440e-3
      1.636622655659273e-3 1.657208834423788e-3 1.678053955440299e-3 1.699161275801375e-3
      1.720534093568764e-3 1.742175748288728e-3 1.764089621513847e-3 1.786279137331395e-3
      1.808747762898364e-3 1.831499008983211e-3 1.854536430514426e-3 1.877863627135993e-3
      1.901484243769844e-3 1.925401971185383e-3 1.949620546576179e-3 1.974143754143912e-3
      1.998975425689658e-3 2.024119441212615e-3 2.049579729516364e-3 2.075360268822751e-3
      2.101465087393496e-3 2.127898264159611e-3 2.154663929358743e-3 2.181766265180535e-3
      2.209209506420097e-3 2.236997941139712e-3 2.265135911338836e-3 2.293627813632563e-3
      2.322478099938592e-3 2.351691278172853e-3 2.381271912953883e-3 2.411224626316048e-3
      2.441554098431749e-3 2.472265068342710e-3 2.503362334700460e-3 2.534850756516139e-3
      2.566735253919719e-3 2.599020808928786e-3 2.631712466226998e-3 2.664815333952315e-3
      2.698334584495174e-3 2.732275455306665e-3 2.766643249716906e-3 2.801443337763693e-3
      2.836681157031585e-3 2.872362213501539e-3 2.908492082411217e-3 2.945076409126146e-3
      2.982120910021805e-3 3.019631373376825e-3 3.057613660277425e-3 3.096073705533207e-3
      3.135017518604489e-3 3.174451184541296e-3 3.214380864934156e-3 3.254812798876872e-3
      3.295753303941384e-3 3.337208777164896e-3 3.379185696049445e-3 3.421690619574005e-3
      3.464730189219361e-3 3.508311130005830e-3 3.552440251544077e-3 3.597124449099123e-3
      3.642370704667746e-3 3.688186088069436e-3 3.734577758051060e-3 3.781552963405437e-3
      3.829119044103976e-3 3.877283432443555e-3 3.926053654207850e-3 3.975437329843235e-3
      4.025442175649498e-3 4.076076004985532e-3 4.127346729490182e-3 4.179262360318471e-3
      4.231831009393336e-3 4.285060890673144e-3 4.338960321435144e-3 4.393537723575048e-3
      4.448801624922988e-3 4.504760660575976e-3 4.561423574247189e-3 4.618799219632166e-3
      4.676896561792224e-3 4.735724678555289e-3 4.795292761934284e-3 4.855610119563430e-3
      4.916686176152573e-3 4.978530474959811e-3 5.041152679282666e-3 5.104562573967963e-3
      5.168770066940755e-3 5.233785190752452e-3 5.299618104148419e-3 5.366279093655320e-3
      5.433778575188382e-3 5.502127095678927e-3 5.571335334722337e-3 5.641414106246763e-3
      5.712374360202839e-3 5.784227184274614e-3 5.856983805612035e-3 5.930655592585206e-3
      6.005254056560727e-3 6.080790853700375e-3 6.157277786782379e-3 6.234726807045647e-3
      6.313150016057167e-3 6.392559667602892e-3 6.472968169602450e-3 6.554388086047863e-3
      6.636832138966730e-3 6.720313210410048e-3 6.804844344465072e-3 6.890438749293486e-3
      6.977109799195185e-3 7.064871036698049e-3 7.153736174673987e-3 7.243719098481602e-3
      7.334833868135822e-3 7.427094720504773e-3 7.520516071534345e-3 7.615112518500704e-3
      7.710898842291138e-3 7.807890009713631e-3 7.906101175835417e-3 8.005547686351019e-3
      8.106245079980024e-3 8.208209090895052e-3 8.311455651180271e-3 8.416000893320776e-3
      8.521861152723348e-3 8.629052970268896e-3 8.737593094896983e-3 8.847498486222928e-3
      8.958786317187723e-3 9.071473976741368e-3 9.185579072559936e-3 9.301119433796789e-3
      9.418113113868456e-3 9.536578393275466e-3 9.656533782458744e-3 9.777998024691904e-3
      9.900990099009901e-3 1.002552922317460e-2 1.015163485667752e-2 1.027932670378045e-2
      1.040862471659430e-2 1.053954909819663e-2 1.067212030578843e-2 1.080635905389062e-2
      1.094228631758067e-2 1.107992333577011e-2 1.121929161452303e-2 1.136041293041656e-2
      1.150330933394340e-2 1.164800315295734e-2 1.179451699616197e-2 1.194287375664337e-2
      1.209309661544723e-2 1.224520904520084e-2 1.239923481378084e-2 1.255519798802693e-2
      1.271312293750239e-2 1.287303433830189e-2 1.303495717690715e-2 1.319891675409112e-2
      1.336493868887133e-2 1.353304892251283e-2 1.370327372258170e-2 1.387563968704925e-2
      1.405017374844810e-2 1.422690317808045e-2 1.440585559027922e-2 1.458705894672293e-2
      1.477054156080466e-2 1.495633210205617e-2 1.514445960062752e-2 1.533495345182310e-2
      1.552784342069474e-2 1.572315964669252e-2 1.592093264837410e-2 1.612119332817338e-2
      1.632397297722899e-2 1.652930328027369e-2 1.673721632058507e-2 1.694774458499867e-2
      1.716092096898412e-2 1.737677878178513e-2 1.759535175162415e-2 1.781667403097237e-2
      1.804078020188624e-2 1.826770528141090e-2 1.849748472705171e-2 1.873015444231456e-2
      1.896575078231581e-2 1.920431055946292e-2 1.944587104920642e-2 1.969046999586427e-2
      1.993814561851958e-2 2.018893661699224e-2 2.044288217788602e-2 2.070002198071145e-2
      2.096039620408589e-2 2.122404553201148e-2 2.149101116023211e-2 2.176133480267032e-2
      2.203505869794524e-2 2.231222561597236e-2 2.259287886464657e-2 2.287706229660896e-2
      2.316482031609893e-2 2.345619788589249e-2 2.375124053432770e-2 2.404999436241870e-2
      2.435250605105892e-2 2.465882286831517e-2 2.496899267681337e-2 2.528306394121710e-2
      2.560108573580047e-2 2.592310775211586e-2 2.624918030675850e-2 2.657935434922844e-2
      2.691368146989154e-2 2.725221390804066e-2 2.759500456005793e-2 2.794210698768019e-2
      2.829357542636798e-2 2.864946479377981e-2 2.900983069835351e-2 2.937472944799473e-2
      2.974421805887557e-2 3.011835426434322e-2 3.049719652394090e-2 3.088080403254253e-2
      3.126923672960167e-2 3.166255530851757e-2 3.206082122611845e-2 3.246409671226409e-2
      3.287244477956981e-2 3.328592923325179e-2 3.370461468109720e-2 3.412856654355918e-2
      3.455785106397863e-2 3.499253531893538e-2 3.543268722872852e-2 3.587837556798951e-2
      3.632966997642818e-2 3.678664096971390e-2 3.724935995049420e-2 3.771789921955111e-2
      3.819233198709875e-2 3.867273238422232e-2 3.915917547446116e-2 3.965173726553791e-2
      4.015049472123442e-2 4.065552577341793e-2 4.116690933421792e-2 4.168472530835604e-2
      4.220905460563190e-2 4.273997915356480e-2 4.327758191019560e-2 4.382194687704889e-2
      4.437315911225807e-2 4.493130474385651e-2 4.549647098323455e-2 4.606874613876702e-2
      4.664821962961133e-2 4.723498199967924e-2 4.782912493178499e-2 4.843074126197036e-2
      4.903992499401102e-2 4.965677131410457e-2 5.028137660574338e-2 5.091383846477516e-2
      5.155425571465199e-2 5.220272842187217e-2 5.285935791161565e-2 5.352424678357592e-2
      5.419749892799213e-2 5.487921954188143e-2 5.556951514547678e-2 5.626849359887077e-2
      5.697626411886862e-2 5.769293729605424e-2 5.841862511206949e-2 5.915344095711211e-2
      5.989749964765298e-2 6.065091744437611e-2 6.141381207034526e-2 6.218630272939770e-2
      6.296851012477058e-2 6.376055647796103e-2 6.456256554782290e-2 6.537466264990530e-2
      6.619697467603240e-2 6.702963011413142e-2 6.787275906830875e-2 6.872649327917857e-2
      6.959096614444853e-2 7.046631273976235e-2 7.135266983980659e-2 7.225017593968155e-2
      7.315897127654109e-2 7.407919785150580e-2 7.501099945184998e-2 7.595452167346959e-2
      7.690991194363146e-2 7.787731954400883e-2 7.885689563400772e-2 7.984879327438490e-2
      8.085316745116483e-2 8.187017509985617e-2 8.289997512997292e-2 8.394272844986517e-2
      8.499859799186037e-2 8.606774873772277e-2 8.715034774443181e-2 8.824656417028452e-2
      8.935656930132803e-2 9.048053657812204e-2 9.161864162284049e-2 9.277106226671224e-2
      9.393797857780719e-2 9.511957288917339e-2 9.631602982732563e-2 9.752753634109485e-2
      9.875428173083890e-2 9.999645767802033e-2 1.012542582751585e-1 1.025278800561554e-1
      1.038175220270056e-1 1.051233856968912e-1 1.064456751096669e-1 1.077845968757440e-1
      1.091403602043723e-1 1.105131769363303e-1 1.119032615770256e-1 1.133108313300111e-1
      1.147361061309248e-1 1.161793086818536e-1 1.176406644861326e-1 1.191204018835796e-1
      1.206187520861730e-1 1.221359492141809e-1 1.236722303327407e-1 1.252278354889032e-1
      1.268030077491390e-1 1.283979932373182e-1 1.300130411731686e-1 1.316484039112157e-1
      1.333043369802149e-1 1.349810991230769e-1 1.366789523372980e-1 1.383981619158975e-1
      1.401389964888694e-1 1.419017280651579e-1 1.436866320751577e-1 1.454939874137519e-1
      1.473240764838896e-1 1.491771852407108e-1 1.510536032362295e-1 1.529536236645745e-1
      1.548775434078037e-1 1.568256630822914e-1 1.587982870856998e-1 1.607957236445432e-1
      1.628182848623472e-1 1.648662867684173e-1 1.669400493672183e-1 1.690398966883748e-1
      1.711661568373036e-1 1.733191620464781e-1 1.754992487273430e-1 1.777067575228778e-1
      1.799420333608225e-1 1.822054255075749e-1 1.844972876227625e-1 1.868179778145038e-1
      1.891678586953630e-1 1.915472974390081e-1 1.939566658375844e-1 1.963963403598053e-1
      1.988667022097789e-1 2.013681373865706e-1 2.039010367445152e-1 2.064657960542915e-1
      2.090628160647587e-1 2.116925025655776e-1 2.143552664506146e-1 2.170515237821433e-1
      2.197816958558581e-1 2.225462092666993e-1 2.253454959755122e-1 2.281799933765406e-1
      2.310501443657695e-1 2.339563974101312e-1 2.368992066175758e-1 2.398790318080295e-1
      2.428963385852413e-1 2.459515984095332e-1 2.490452886714693e-1 2.521778927664465e-1
      2.553499001702284e-1 2.585618065154256e-1 2.618141136689387e-1 2.651073298103777e-1
      2.684419695114644e-1 2.718185538164366e-1 2.752376103234623e-1 2.786996732670758e-1
      2.822052836016566e-1 2.857549890859508e-1 2.893493443686628e-1 2.929889110751186e-1
      2.966742578950201e-1 3.004059606713065e-1 3.041846024901281e-1 3.080107737719571e-1
      3.118850723638412e-1 3.158081036328168e-1 3.197804805605022e-1 3.238028238388730e-1
      3.278757619672506e-1 3.319999313505046e-1 3.361759763984906e-1 3.404045496267448e-1
      3.446863117584361e-1 3.490219318276093e-1 3.534120872837219e-1 3.578574640974944e-1
      3.623587568680994e-1 3.669166689316890e-1 3.715319124712971e-1 3.762052086281169e-1
      3.809372876141795e-1 3.857288888264557e-1 3.905807609623817e-1 3.954936621368508e-1
      4.004683600006676e-1 4.055056318604931e-1 4.106062648003051e-1 4.157710558043764e-1
      4.210008118818097e-1 4.262963501926333e-1 4.316584981754803e-1 4.370880936768840e-1
      4.425859850821867e-1 4.481530314481066e-1 4.537901026369655e-1 4.594980794526037e-1
      4.652778537780133e-1 4.711303287146901e-1 4.770564187237507e-1 4.830570497688164e-1
      4.891331594606950e-1 4.952856972038893e-1 5.015156243449372e-1 5.078239143226307e-1
      5.142115528201137e-1 5.206795379188955e-1 5.272288802548088e-1 5.338606031759165e-1
      5.405757429024182e-1 5.473753486885593e-1 5.542604829865758e-1 5.612322216127116e-1
      5.682916539153093e-1 5.754398829450295e-1 5.826780256272026e-1 5.900072129363464e-1
      5.974285900728916e-1 6.049433166421126e-1 6.125525668353255e-1 6.202575296133556e-1
      6.280594088923104e-1 6.359594237317024e-1 6.439588085249209e-1 6.520588131921158e-1
      6.602607033754971e-1 6.685657606370906e-1 6.769752826589923e-1 6.854905834461253e-1
      6.941129935315629e-1 7.028438601844251e-1 7.116845476203868e-1 7.206364372148490e-1
      7.297009277187707e-1 7.388794354772368e-1 7.481733946507592e-1 7.575842574393652e-1
      7.671134943095145e-1 7.767625942238530e-1 7.865330648738746e-1 7.964264329154982e-1
      8.064442442076054e-1 8.165880640535953e-1 8.268594774459533e-1 8.372600893139207e-1
      8.477915247742640e-1 8.584554293851971e-1 8.692534694035141e-1 8.801873320449339e-1
      8.912587257477407e-1 9.024693804397272e-1 9.138210478084940e-1 9.253155015751659e-1
      9.369545377715262e-1 9.487399750206620e-1 9.606736548211233e-1 9.727574418346540e-1
      9.849932241775639e-1 9.973829137157338e-1 1.009928446363363e0 1.022631782385454e0
      1.035494906704101e0 1.048519829208654e0 1.061708585069748e0 1.075063235057323e0
      1.088585865862610e0 1.102278590424182e0 1.116143548258112e0 1.130182905792268e0
      1.144398856704828e0 1.158793622267049e0 1.173369451690330e0 1.188128622477679e0
      1.203073440779554e0 1.218206241754223e0 1.233529389932628e0 1.249045279587843e0
      1.264756335109198e0 1.280665011381079e0 1.296773794166521e0 1.313085200495610e0
      1.329601779058768e0 1.346326110605001e0 1.363260808345136e0 1.380408518360150e0
      1.397771920014624e0 1.415353726375386e0 1.433156684635457e0 1.451183576543279e0
      1.469437218837392e0 1.487920463686544e0 1.506636199135343e0 1.525587349555534e0
      1.544776876102922e0 1.564207777180074e0 1.583883088904819e0 1.603805885584637e0
      1.623979280197049e0 1.644406424876001e0 1.665090511404410e0 1.686034771712882e0
      1.707242478384696e0 1.728716945167173e0 1.750461527489430e0 1.772479622986700e0
      1.794774672031202e0 1.817350158269703e0 1.840209609167865e0 1.863356596561391e0
      1.886794737214158e0 1.910527693383333e0 1.934559173391593e0 1.958892932206592e0
      1.983532772027642e0 2.008482542879850e0 2.033746143215677e0 2.059327520524066e0
      2.085230671947275e0 2.111459644905406e0 2.138018537728853e0 2.164911500298655e0
      2.192142734694922e0 2.219716495853438e0 2.247637092230476e0 2.275908886476028e0
      2.304536296115468e0 2.333523794239788e0 2.362875910204553e0 2.392597230337592e0
      2.422692398655647e0 2.453166117590003e0 2.484023148721234e0 2.515268313523241e0
      2.546906494116584e0 2.578942634031354e0 2.611381738979596e0 2.644228877637447e0
      2.677489182437158e0 2.711167850369015e0 2.745270143793406e0 2.779801391263065e0
      2.814766988355653e0 2.850172398516865e0 2.886023153914061e0 2.922324856300716e0
      2.959083177891689e0 2.996303862249503e0 3.033992725181827e0 3.072155655650163e0
      3.110798616690042e0 3.149927646342753e0 3.189548858598778e0 3.229668444353152e0
      3.270292672372761e0 3.311427890275891e0 3.353080525524035e0 3.395257086426182e0
      3.437964163155793e0 3.481208428780483e0 3.524996640304744e0 3.569335639725720e0
      3.614232355102266e0 3.659693801637517e0 3.705727082774972e0 3.752339391308471e0
      3.799538010506062e0 3.847330315248008e0 3.895723773179173e0 3.944725945875801e0
      3.994344490027080e0 4.044587158631490e0 4.095461802208206e0 4.146976370023805e0
      4.199138911334303e0 4.251957576642910e0 4.305440618973551e0 4.359596395160385e0
      4.414433367153639e0 4.469960103341738e0 4.526185279890187e0 4.583117682097224e0
      4.640766205766505e0 4.699139858597158e0 4.758247761591182e0 4.818099150478686e0
      4.878703377160958e0 4.940069911171704e0 5.002208341156727e0 5.065128376372121e0
      5.128839848201406e0 5.193352711691688e0 5.258677047109120e0 5.324823061514033e0
      5.391801090355737e0 5.459621599087512e0 5.528295184801841e0 5.597832577886190e0
      5.668244643699722e0 5.739542384270955e0 5.811736940016919e0 5.884839591483844e0
      5.958861761109725e0 6.033815015009189e0 6.109711064780631e0 6.186561769336246e0
      6.264379136754991e0 6.343175326158820e0 6.422962649612663e0 6.503753574048116e0
      6.585560723211503e0 6.668396879636331e0 6.752274986640550e0 6.837208150349053e0
      6.923209641741444e0 7.010292898725736e0 7.098471528238019e0 7.187759308368528e0
      7.278170190514593e0 7.369718301560465e0 7.462417946084765e0 7.556283608595561e0
      7.651329955793564e0 7.747571838863927e0 7.845024295796654e0 7.943702553736426e0
      8.043622031361821e0 8.144798341294479e0 8.247247292538701e0 8.350984892951519e0
      8.456027351744074e0 8.562391082014274e0 8.670092703311346e0 8.779149044232764e0
      8.889577145053646e0 9.001394260389429e0 9.114617861891890e0 9.229265640979092e0
      9.345355511599799e0 9.462905613032451e0 9.581934312719570e0 9.702460209137666e0
      9.824502134703231e0 9.948079158715464e0 1.007321059033575e1 1.019991598160489e1
      1.032821513049806e1 1.045812808401827e1 1.058967514132885e1 1.072287685692511e1
      1.085775404384612e1 1.099432777692678e1 1.113261939609070e1 1.127265050968477e1
      1.141444299785533e1 1.155801901596718e1 1.170340099806527e1 1.185061166038003e1
      1.199967400487701e1 1.215061132285076e1 1.230344719856432e1 1.245820551293422e1
      1.261491044726192e1 1.277358648701226e1 1.293425842563924e1 1.309695136846017e1
      1.326169073657841e1 1.342850227085533e1 1.359741203593260e1 1.376844642430461e1
      1.394163216044253e1 1.411699630497002e1 1.429456625889139e1 1.447436976787326e1
      1.465643492657967e1 1.484079018306210e1 1.502746434320449e1 1.521648657522408e1
      1.540788641422927e1 1.560169376683424e1 1.579793891583217e1 1.599665252492688e1
      1.619786564352403e1 1.640160971158282e1 1.660791656452835e1 1.681681843822616e1
      1.702834797401905e1 1.724253822382730e1 1.745942265531327e1 1.767903515711056e1
      1.790141004411944e1 1.812658206286844e1 1.835458639694355e1 1.858545867248591e1
      1.881923496375823e1 1.905595179878166e1 1.929564616504332e1 1.953835551527553e1
      1.978411777330813e1 2.003297133999387e1 2.028495509920889e1 2.054010842392825e1
      2.079847118237800e1 2.106008374426484e1 2.132498698708376e1 2.159322230250544e1
      2.186483160284368e1 2.213985732760416e1 2.241834245011601e1 2.270033048424613e1
      2.298586549119859e1 2.327499208639919e1 2.356775544646659e1 2.386420131627152e1
      2.416437601608417e1 2.446832644881213e1 2.477610010732896e1 2.508774508189489e1
      2.540331006767132e1 2.572284437232922e1 2.604639792375382e1 2.637402127784586e1
      2.670576562642089e1 2.704168280520840e1 2.738182530195090e1 2.772624626460558e1
      2.807499950964865e1 2.842813953048408e1 2.878572150595870e1 2.914780130898357e1
      2.951443551526464e1 2.988568141214261e1 3.026159700754405e1 3.064224103904569e1
      3.102767298305174e1 3.141795306408769e1 3.181314226421027e1 3.221330233253592e1
      3.261849579488956e1 3.302878596357395e1 3.344423694726272e1 3.386491366101740e1