<?xml version="1.0" encoding="UTF-8"?>
<UPF version="2.0.1">
  <PP_INFO><![CDATA[
Generated using "atomic" code by A. Dal Corso  v.6.3MaX
Author: MS
Generation date: 20Mar2023
Pseudopotential type: PAW
Element: No
Functional:  SLA  PW   PBX  PBC
    Suggested minimum cutoff for wavefunctions:  56. Ry
    Suggested minimum cutoff for charge density: 383. Ry
    The Pseudo was generated with a Scalar-Relativistic Calculation
    Local Potential according to Troullier-Martins recipe, cutoff radius:   1.2000
    Pseudopotential contains additional information for GIPAW reconstruction.
    Valence configuration:
    nl pn  l   occ       Rcut    Rcut US       E pseu
    6S  1  0  2.00      1.100      1.550    -4.704348
    7S  2  0  2.00      1.100      1.550    -0.303352
    6P  2  1  6.00      1.200      2.000    -1.881705
    6D  3  2  0.00      1.400      2.100    -0.018315
    5F  4  3 14.00      1.200      1.700    -0.424651
    Generation configuration:
    6S  1  0  2.00      1.100      1.550    -4.704390
    7S  2  0  2.00      1.100      1.550    -0.303365
    6P  2  1  6.00      1.200      2.000    -1.881737
    7P  3  1  0.00      1.200      2.000     2.000000
    6D  3  2  0.00      1.400      2.100    -0.018322
    6D  3  2  0.00      1.400      2.100     3.000000
    5F  4  3 14.00      1.200      1.700    -0.424703
    5F  4  3  0.00      1.200      1.900     1.500000
    Pseudization used: troullier-martins
]]>
    <PP_INPUTFILE><![CDATA[
 &input
   title='Nobelium',
   atom = 'No'
   rel=1,
   config='[Rn] 6d0.0 7s2.0 7p0.0 5f14.0',
   iswitch=3,
   dft='PBE'
 /
 &inputp
   lpaw=.true.,
   pseudotype=3,
   file_pseudopw='No.pbe-spn-kjpaw_MS.UPF',
   author='MS',
   lloc=-2,
   rcloc=1.20,
   which_augfun='PSQ',
   rmatch_augfun_nc=.true.,
   nlcc=.true.,
   new_core_ps=.true.,
   rcore=0.95,
   tm=.true.
   lgipaw_reconstruction=.true.,
   use_paw_as_gipaw=.true.,
 /
8
6S  1  0  2.00  0.00  1.10  1.55  0.0
7S  2  0  2.00  0.00  1.10  1.55  0.0
6P  2  1  6.00  0.00  1.20  2.00  0.0
7P  3  1  0.00  2.00  1.20  2.00  0.0
6D  3  2  0.00  0.00  1.40  2.10  0.0
6D  3  2  0.00  3.00  1.40  2.10  0.0
5F  4  3 14.00  0.00  1.20  1.70  0.0
5F  4  3  0.00  1.50  1.20  1.90  0.0
]]></PP_INPUTFILE>
  </PP_INFO>
  <!--
 END OF HUMAN READABLE SECTION 
-->
  <PP_HEADER generated="Generated using &quot;atomic&quot; code by A. Dal Corso  v.6.3MaX" author="MS" date="20Mar2023" comment="" element="No" pseudo_type="PAW" relativistic="scalar" is_ultrasoft="true" is_paw="true" is_coulomb="false" has_so="false" has_wfc="true" has_gipaw="true" paw_as_gipaw="true" core_correction="true" functional=" SLA  PW   PBX  PBC" z_valence="2.400000000000e1" total_psenergy="-1.498474566642e3" wfc_cutoff="5.625421404487e1" rho_cutoff="3.833794108881e2" l_max="3" l_max_rho="6" l_local="-2" mesh_size="1299" number_of_wfc="5" number_of_proj="8"/>
  <PP_MESH dx="1.250000000000e-2" mesh="1299" xmin="-7.000000000000e0" rmax="1.000000000000e2" zmesh="1.020000000000e2">
    <PP_R>
      8.940019270142317e-6 9.052470869304141e-6 9.166336935456687e-6 9.281635260404450e-6
      9.398383859745291e-6 9.516600975685382e-6 9.636305079889594e-6 9.757514876367757e-6
      9.880249304397161e-6 1.000452754148191e-5 1.013036900634938e-5 1.025779336198449e-5
      1.038682051870206e-5 1.051747063725781e-5 1.064976413199860e-5 1.078372167405214e-5
      1.091936419455689e-5 1.105671288793267e-5 1.119578921519223e-5 1.133661490729468e-5
      1.147921196854093e-5 1.162360268001189e-5 1.176980960305001e-5 1.191785558278446e-5
      1.206776375170080e-5 1.221955753325539e-5 1.237326064553544e-5 1.252889710496495e-5
      1.268649123005734e-5 1.284606764521529e-5 1.300765128457835e-5 1.317126739591889e-5
      1.333694154458720e-5 1.350469961750605e-5 1.367456782721568e-5 1.384657271596943e-5
      1.402074115988112e-5 1.419710037312447e-5 1.437567791218533e-5 1.455650168016752e-5
      1.473959993115267e-5 1.492500127461502e-5 1.511273467989167e-5 1.530282948070914e-5
      1.549531537976684e-5 1.569022245337809e-5 1.588758115616967e-5 1.608742232584045e-5
      1.628977718797975e-5 1.649467736094648e-5 1.670215486080955e-5 1.691224210635042e-5
      1.712497192412863e-5 1.734037755361099e-5 1.755849265236539e-5 1.777935130131976e-5
      1.800298801008732e-5 1.822943772235884e-5 1.845873582136252e-5 1.869091813539291e-5
      1.892602094340892e-5 1.916408098070262e-5 1.940513544463918e-5 1.964922200046901e-5
      1.989637878721308e-5 2.014664442362215e-5 2.040005801421107e-5 2.065665915536896e-5
      2.091648794154616e-5 2.117958497151917e-5 2.144599135473417e-5 2.171574871773055e-5
      2.198889921064513e-5 2.226548551379811e-5 2.254555084436212e-5 2.282913896311484e-5
      2.311629418127679e-5 2.340706136743504e-5 2.370148595455396e-5 2.399961394707434e-5
      2.430149192810156e-5 2.460716706668430e-5 2.491668712518488e-5 2.523010046674216e-5
      2.554745606282841e-5 2.586880350090119e-5 2.619419299215147e-5 2.652367537934928e-5
      2.685730214478792e-5 2.719512541832832e-5 2.753719798554424e-5 2.788357329597027e-5
      2.823430547145336e-5 2.858944931460949e-5 2.894906031738673e-5 2.931319466973589e-5
      2.968190926839034e-5 3.005526172575630e-5 3.043331037891479e-5 3.081611429873706e-5
      3.120373329911438e-5 3.159622794630419e-5 3.199365956839361e-5 3.239609026488218e-5
      3.280358291638501e-5 3.321620119445796e-5 3.363400957154642e-5 3.405707333105934e-5
      3.448545857756988e-5 3.491923224714441e-5 3.535846211780127e-5 3.580321682010141e-5
      3.625356584787188e-5 3.670957956906451e-5 3.717132923675105e-5 3.763888700025650e-5
      3.811232591643265e-5 3.859171996107337e-5 3.907714404047344e-5 3.956867400313292e-5
      4.006638665160850e-5 4.057035975451408e-5 4.108067205867235e-5 4.159740330141902e-5
      4.212063422306215e-5 4.265044657949773e-5 4.318692315498438e-5 4.373014777507844e-5
      4.428020531973202e-5 4.483718173655561e-5 4.540116405424752e-5 4.597224039619227e-5
      4.655049999423017e-5 4.713603320259986e-5 4.772893151205651e-5 4.832928756416718e-5
      4.893719516578644e-5 4.955274930371386e-5 5.017604615953579e-5 5.080718312465416e-5
      5.144625881550377e-5 5.209337308896153e-5 5.274862705794923e-5 5.341212310723259e-5
      5.408396490941934e-5 5.476425744115784e-5 5.545310699954027e-5 5.615062121871163e-5
      5.685690908668766e-5 5.757208096238482e-5 5.829624859286366e-5 5.902952513078978e-5
      5.977202515211410e-5 6.052386467397550e-5 6.128516117282905e-5 6.205603360280144e-5
      6.283660241427826e-5 6.362698957272439e-5 6.442731857774131e-5 6.523771448236444e-5
      6.605830391260261e-5 6.688921508722379e-5 6.773057783778955e-5 6.858252362894128e-5
      6.944518557894241e-5 7.031869848047744e-5 7.120319882171462e-5 7.209882480763174e-5
      7.300571638161115e-5 7.392401524730663e-5 7.485386489078394e-5 7.579541060294187e-5
      7.674879950221348e-5 7.771418055755387e-5 7.869170461171726e-5 7.968152440482559e-5
      8.068379459823557e-5 8.169867179870401e-5 8.272631458285815e-5 8.376688352197402e-5
      8.482054120706504e-5 8.588745227428852e-5 8.696778343066923e-5 8.806170348014820e-5
      8.916938334995905e-5 9.029099611733471e-5 9.142671703655223e-5 9.257672356631581e-5
      9.374119539748536e-5 9.492031448115384e-5 9.611426505707675e-5 9.732323368246089e-5
      9.854740926111358e-5 9.978698307295950e-5 1.010421488039289e-4 1.023131025762206e-4
      1.036000429789476e-4 1.049031710991660e-4 1.062226905532956e-4 1.075588075189362e-4
      1.089117307670814e-4 1.102816716947418e-4 1.116688443579743e-4 1.130734655053296e-4
      1.144957546117201e-4 1.159359339127119e-4 1.173942284392512e-4 1.188708660528245e-4
      1.203660774810631e-4 1.218800963537950e-4 1.234131592395490e-4 1.249655056825203e-4
      1.265373782399987e-4 1.281290225202694e-4 1.297406872209896e-4 1.313726241680473e-4
      1.330250883549111e-4 1.346983379824720e-4 1.363926344993884e-4 1.381082426429386e-4
      1.398454304803848e-4 1.416044694508616e-4 1.433856344077865e-4 1.451892036618078e-4
      1.470154590242914e-4 1.488646858513524e-4 1.507371730884454e-4 1.526332133155107e-4
      1.545531027926910e-4 1.564971415066237e-4 1.584656332173125e-4 1.604588855055924e-4
      1.624772098211888e-4 1.645209215313820e-4 1.665903399702851e-4 1.686857884887391e-4
      1.708075945048384e-4 1.729560895550899e-4 1.751316093462160e-4 1.773344938076109e-4
      1.795650871444527e-4 1.818237378914891e-4 1.841107989674942e-4 1.864266277304143e-4
      1.887715860332052e-4 1.911460402803725e-4 1.935503614852233e-4 1.959849253278376e-4
      1.984501122137685e-4 2.009463073334830e-4 2.034739007225465e-4 2.060332873225689e-4
      2.086248670429135e-4 2.112490448231840e-4 2.139062306964978e-4 2.165968398535534e-4
      2.193212927075059e-4 2.220800149596566e-4 2.248734376659699e-4 2.277019973044272e-4
      2.305661358432265e-4 2.334663008098419e-4 2.364029453609498e-4 2.393765283532356e-4
      2.423875144150922e-4 2.454363740192172e-4 2.485235835561269e-4 2.516496254085925e-4
      2.548149880270132e-4 2.580201660057384e-4 2.612656601603479e-4 2.645519776059068e-4
      2.678796318362016e-4 2.712491428039763e-4 2.746610370021747e-4 2.781158475462069e-4
      2.816141142572493e-4 2.851563837465929e-4 2.887432095010519e-4 2.923751519694481e-4
      2.960527786501814e-4 2.997766641799029e-4 3.035473904233029e-4 3.073655465640284e-4
      3.112317291967446e-4 3.151465424203536e-4 3.191105979323866e-4 3.231245151245821e-4
      3.271889211796675e-4 3.313044511693585e-4 3.354717481535885e-4 3.396914632809904e-4
      3.439642558906376e-4 3.482907936150682e-4 3.526717524846046e-4 3.571078170329827e-4
      3.615996804043139e-4 3.661480444613885e-4 3.707536198953440e-4 3.754171263367124e-4
      3.801392924678629e-4 3.849208561368610e-4 3.897625644727580e-4 3.946651740023319e-4
      3.996294507682963e-4 4.046561704489956e-4 4.097461184796070e-4 4.149000901748659e-4
      4.201188908533352e-4 4.254033359632389e-4 4.307542512098767e-4 4.361724726846425e-4
      4.416588469956650e-4 4.472142314000921e-4 4.528394939380404e-4 4.585355135682253e-4
      4.643031803053033e-4 4.701433953589359e-4 4.760570712746076e-4 4.820451320762116e-4
      4.881085134104308e-4 4.942481626929351e-4 5.004650392564157e-4 5.067601145004843e-4
      5.131343720434547e-4 5.195888078760373e-4 5.261244305169621e-4 5.327422611705637e-4
      5.394433338863457e-4 5.462286957205530e-4 5.530994068997779e-4 5.600565409866205e-4
      5.671011850474361e-4 5.742344398221917e-4 5.814574198964580e-4 5.887712538755681e-4
      5.961770845609605e-4 6.036760691287474e-4 6.112693793105240e-4 6.189582015764548e-4
      6.267437373206625e-4 6.346272030489466e-4 6.426098305688663e-4 6.506928671822121e-4
      6.588775758798995e-4 6.671652355393157e-4 6.755571411241430e-4 6.840546038867026e-4
      6.926589515728394e-4 7.013715286293845e-4 7.101936964142299e-4 7.191268334090406e-4
      7.281723354346461e-4 7.373316158691415e-4 7.466061058687288e-4 7.559972545913403e-4
      7.655065294230702e-4 7.751354162074577e-4 7.848854194776528e-4 7.947580626915023e-4
      8.047548884695960e-4 8.148774588362995e-4 8.251273554638274e-4 8.355061799193811e-4
      8.460155539153970e-4 8.566571195629450e-4 8.674325396283072e-4 8.783434977927913e-4
      8.893916989158093e-4 9.005788693012635e-4 9.119067569672891e-4 9.233771319193792e-4
      9.349917864269575e-4 9.467525353034201e-4 9.586612161897062e-4 9.707196898414344e-4
      9.829298404196447e-4 9.952935757852067e-4 1.007812827796926e-3 1.020489552613399e-3
      1.033325730998670e-3 1.046323368631728e-3 1.059484496419895e-3 1.072811170816167e-3
      1.086305474140529e-3 1.099969514905331e-3 1.113805428144743e-3 1.127815375748357e-3
      1.142001546798990e-3 1.156366157914731e-3 1.170911453595290e-3 1.185639706572712e-3
      1.200553218166490e-3 1.215654318643150e-3 1.230945367580366e-3 1.246428754235643e-3
      1.262106897919649e-3 1.277982248374232e-3 1.294057286155199e-3 1.310334523019907e-3
      1.326816502319732e-3 1.343505799397475e-3 1.360405021989758e-3 1.377516810634492e-3
      1.394843839083467e-3 1.412388814720130e-3 1.430154478982622e-3 1.448143607792126e-3
      1.466359011986619e-3 1.484803537760065e-3 1.503480067107142e-3 1.522391518273559e-3
      1.541540846212036e-3 1.560931043044023e-3 1.580565138527224e-3 1.600446200529004e-3
      1.620577335505750e-3 1.640961688988260e-3 1.661602446073237e-3 1.682502831920969e-3
      1.703666112259266e-3 1.725095593893740e-3 1.746794625224495e-3 1.768766596769322e-3
      1.791014941693478e-3 1.813543136346120e-3 1.836354700803500e-3 1.859453199418974e-3
      1.882842241379943e-3 1.906525481271801e-3 1.930506619648961e-3 1.954789403613090e-3
      1.979377627398583e-3 2.004275132965432e-3 2.029485810599537e-3 2.055013599520567e-3
      2.080862488497481e-3 2.107036516471771e-3 2.133539773188559e-3 2.160376399835627e-3
      2.187550589690489e-3 2.215066588775596e-3 2.242928696521790e-3 2.271141266440088e-3
      2.299708706801940e-3 2.328635481328021e-3 2.357926109885708e-3 2.387585169195302e-3
      2.417617293545163e-3 2.448027175515821e-3 2.478819566713200e-3 2.509999278511079e-3
      2.541571182802859e-3 2.573540212762818e-3 2.605911363616929e-3 2.638689693423371e-3
      2.671880323862869e-3 2.705488441038953e-3 2.739519296288309e-3 2.773978207001305e-3
      2.808870557452844e-3 2.844201799643680e-3 2.879977454152284e-3 2.916203110997459e-3
      2.952884430511787e-3 2.990027144226071e-3 3.027637055764901e-3 3.065720041753469e-3
      3.104282052735817e-3 3.143329114104616e-3 3.182867327042644e-3 3.222902869476119e-3
      3.263441997039997e-3 3.304491044055436e-3 3.346056424519549e-3 3.388144633107593e-3
      3.430762246187799e-3 3.473915922848910e-3 3.517612405940704e-3 3.561858523127564e-3
      3.606661187955317e-3 3.652027400931500e-3 3.697964250619187e-3 3.744478914744599e-3
      3.791578661318642e-3 3.839270849772539e-3 3.887562932107774e-3 3.936462454060458e-3
      3.985977056280385e-3 4.036114475524890e-3 4.086882545867729e-3 4.138289199923192e-3
      4.190342470085556e-3 4.243050489784191e-3 4.296421494754407e-3 4.350463824324312e-3
      4.405185922717859e-3 4.460596340374252e-3 4.516703735283981e-3 4.573516874341654e-3
      4.631044634715830e-3 4.689296005236119e-3 4.748280087797673e-3 4.808006098783395e-3
      4.868483370504018e-3 4.929721352656284e-3 4.991729613799503e-3 5.054517842850630e-3
      5.118095850598200e-3 5.182473571235271e-3 5.247661063911670e-3 5.313668514305757e-3
      5.380506236215947e-3 5.448184673172271e-3 5.516714400068197e-3 5.586106124812971e-3
      5.656370690004772e-3 5.727519074624863e-3 5.799562395753092e-3 5.872511910304958e-3
      5.946379016790524e-3 6.021175257095470e-3 6.096912318284513e-3 6.173602034427552e-3
      6.251256388448763e-3 6.329887513998942e-3 6.409507697351446e-3 6.490129379321905e-3
      6.571765157212153e-3 6.654427786778577e-3 6.738130184225217e-3 6.822885428221981e-3
      6.908706761948173e-3 6.995607595161792e-3 7.083601506294830e-3 7.172702244574920e-3
      7.262923732173705e-3 7.354280066382177e-3 7.446785521813420e-3 7.540454552633049e-3
      7.635301794817694e-3 7.731342068441929e-3 7.828590379993895e-3 7.927061924720125e-3
      8.026772088999829e-3 8.127736452749023e-3 8.229970791854974e-3 8.333491080641162e-3
      8.438313494363317e-3 8.544454411736847e-3 8.651930417496034e-3 8.760758304985449e-3
      8.870955078783920e-3 8.982537957361549e-3 9.095524375770133e-3 9.209931988367408e-3
      9.325778671575629e-3 9.443082526674726e-3 9.561861882630717e-3 9.682135298959629e-3
      9.803921568627450e-3 9.927239720986613e-3 1.005210902474931e-2 1.017854899099829e-2
      1.030657937623554e-2 1.043622018546921e-2 1.056749167533953e-2 1.070041435728384e-2
      1.083500900074165e-2 1.097129663639982e-2 1.110929855947869e-2 1.124903633305953e-2
      1.139053179145376e-2 1.153380704361462e-2 1.167888447659175e-2 1.182578675902922e-2
      1.197453684470755e-2 1.212515797613025e-2 1.227767368815554e-2 1.243210781167373e-2
      1.258848447733080e-2 1.274682811929893e-2 1.290716347909433e-2 1.306951560944317e-2
      1.323390987819612e-2 1.340037197229212e-2 1.356892790177208e-2 1.373960400384288e-2
      1.391242694699273e-2 1.408742373515809e-2 1.426462171194315e-2 1.444404856489231e-2
      1.462573232981638e-2 1.480970139517327e-2 1.499598450650372e-2 1.518461077092288e-2
      1.537560966166832e-2 1.556901102270533e-2 1.576484507339004e-2 1.596314241319129e-2
      1.616393402647184e-2 1.636725128732983e-2 1.657312596450090e-2 1.678159022632221e-2
      1.699267664575879e-2 1.720641820549312e-2 1.742284830307881e-2 1.764200075615892e-2
      1.786390980775010e-2 1.808861013159315e-2 1.831613683757081e-2 1.854652547719382e-2
      1.877981204915585e-2 1.901603300495838e-2 1.925522525460636e-2 1.949742617237541e-2
      1.974267360265174e-2 1.999100586584525e-2 2.024246176437733e-2 2.049708058874370e-2
      2.075490212365367e-2 2.101596665424666e-2 2.128031497238670e-2 2.154798838303631e-2
      2.181902871071048e-2 2.209347830601185e-2 2.237138005224808e-2 2.265277737213240e-2
      2.293771423456855e-2 2.322623516152100e-2 2.351838523497155e-2 2.381421010396362e-2
      2.411375599173481e-2 2.441706970293953e-2 2.472419863096225e-2 2.503519076532281e-2
      2.535009469917497e-2 2.566895963689904e-2 2.599183540179028e-2 2.631877244384385e-2
      2.664982184763769e-2 2.698503534031478e-2 2.732446529966521e-2 2.766816476231078e-2
      2.801618743199182e-2 2.836858768795844e-2 2.872542059346769e-2 2.908674190438695e-2
      2.945260807790619e-2 2.982307628135947e-2 3.019820440115716e-2 3.057805105183133e-2
      3.096267558519381e-2 3.135213809961054e-2 3.174649944939180e-2 3.214582125430072e-2
      3.255016590918187e-2 3.295959659371011e-2 3.337417728226292e-2 3.379397275391644e-2
      3.421904860256708e-2 3.464947124718111e-2 3.508530794217235e-2 3.552662678791119e-2
      3.597349674136516e-2 3.642598762687357e-2 3.688417014705798e-2 3.734811589386924e-2
      3.781789735977425e-2 3.829358794908289e-2 3.877526198941742e-2 3.926299474332676e-2
      3.975686242004585e-2 4.025694218740403e-2 4.076331218388246e-2 4.127605153082314e-2
      4.179524034479237e-2 4.232095975009847e-2 4.285329189146820e-2 4.339231994688174e-2
      4.393812814056925e-2 4.449080175617165e-2 4.505042715006558e-2 4.561709176485754e-2
      4.619088414304652e-2 4.677189394085885e-2 4.736021194225768e-2 4.795593007312752e-2
      4.855914141563836e-2 4.916994022278983e-2 4.978842193313805e-2 5.041468318570875e-2
      5.104882183509657e-2 5.169093696675578e-2 5.234112891248214e-2 5.299949926608987e-2
      5.366615089928633e-2 5.434118797774533e-2 5.502471597738388e-2 5.571684170084263e-2
      5.641767329417383e-2 5.712732026374000e-2 5.784589349332371e-2 5.857350526145413e-2
      5.931026925895049e-2 6.005630060668614e-2 6.081171587357717e-2 6.157663309479576e-2
      6.235117179021401e-2 6.313545298307906e-2 6.392959921892267e-2 6.473373458471015e-2
      6.554798472822815e-2 6.637247687771836e-2 6.720733986175670e-2 6.805270412938270e-2
      6.890870177048335e-2 6.977546653643135e-2 7.065313386098495e-2 7.154184088144938e-2
      7.244172646010441e-2 7.335293120590281e-2 7.427559749643970e-2 7.520986950020027e-2
      7.615589319908605e-2 7.711381641122443e-2 7.808378881406647e-2 7.906596196777328e-2
      8.006048933889849e-2 8.106752632436740e-2 8.208723027575749e-2 8.311976052388609e-2
      8.416527840370486e-2 8.522394727950982e-2 8.629593257046679e-2 8.738140177645821e-2
      8.848052450425619e-2 8.959347249402281e-2 9.072041964614598e-2 9.186154204841113e-2
      9.301701800351497e-2 9.418702805692657e-2 9.537175502509694e-2 9.657138402402531e-2
      9.778610249818360e-2 9.901610024980446e-2 1.002615694685393e-1 1.015227047614872e-1
      1.027997031836036e-1 1.040927642684903e-1 1.054020900595721e-1 1.067278851416681e-1
      1.080703566729569e-1 1.094297144173467e-1 1.108061707772509e-1 1.121999408267757e-1
      1.136112423453275e-1 1.150402958516394e-1 1.164873246382294e-1 1.179525548062896e-1
      1.194362153010144e-1 1.209385379473752e-1 1.224597574863413e-1 1.240001116115610e-1
      1.255598410065004e-1 1.271391893820503e-1 1.287384035146081e-1 1.303577332846352e-1
      1.319974317157030e-1 1.336577550140271e-1 1.353389626085009e-1 1.370413171912318e-1
      1.387650847585864e-1 1.405105346527544e-1 1.422779396038326e-1 1.440675757724406e-1
      1.458797227928711e-1 1.477146638167823e-1 1.495726855574429e-1 1.514540783345297e-1
      1.533591361194919e-1 1.552881565814846e-1 1.572414411338792e-1 1.592192949813614e-1
      1.612220271676183e-1 1.632499506236289e-1 1.653033822165593e-1 1.673826427992732e-1
      1.694880572604673e-1 1.716199545754342e-1 1.737786678574671e-1 1.759645344099084e-1
      1.781778957788536e-1 1.804190978065203e-1 1.826884906852845e-1 1.849864290124008e-1
      1.873132718454085e-1 1.896693827582335e-1 1.920551298980002e-1 1.944708860425523e-1
      1.969170286587026e-1 1.993939399612120e-1 2.019020069725102e-1 2.044416215831709e-1
      2.070131806131434e-1 2.096170858737583e-1 2.122537442305105e-1 2.149235676666321e-1
      2.176269733474673e-1 2.203643836856532e-1 2.231362264071248e-1 2.259429346179471e-1
      2.287849468719875e-1 2.316627072394436e-1 2.345766653762270e-1 2.375272765942253e-1
      2.405150019324449e-1 2.435403082290475e-1 2.466036681942980e-1 2.497055604844225e-1
      2.528464697764026e-1 2.560268868437058e-1 2.592473086329687e-1 2.625082383416486e-1
      2.658101854966461e-1 2.691536660339225e-1 2.725392023791146e-1 2.759673235291633e-1
      2.794385651349737e-1 2.829534695851082e-1 2.865125860905387e-1 2.901164707704606e-1
      2.937656867391865e-1 2.974608041941369e-1 3.012024005049307e-1 3.049910603036045e-1
      3.088273755759605e-1 3.127119457540637e-1 3.166453778099090e-1 3.206282863502566e-1
      3.246612937126697e-1 3.287450300627546e-1 3.328801334926231e-1 3.370672501206003e-1
      3.413070341921769e-1 3.456001481822406e-1 3.499472628985874e-1 3.543490575867347e-1
      3.588062200360592e-1 3.633194466872607e-1 3.678894427411863e-1 3.725169222690177e-1
      3.772026083238445e-1 3.819472330536473e-1 3.867515378156917e-1 3.916162732923719e-1
      3.965421996085043e-1 4.015300864500960e-1 4.065807131846158e-1 4.116948689827648e-1
      4.168733529417920e-1 4.221169742103525e-1 4.274265521149363e-1 4.328029162878949e-1
      4.382469067970672e-1 4.437593742770467e-1 4.493411800620933e-1 4.549931963207154e-1
      4.607163061919544e-1 4.665114039233696e-1 4.723793950107727e-1 4.783211963397104e-1
      4.843377363287273e-1 4.904299550744393e-1 4.965988044984183e-1 5.028452484959383e-1
      5.091702630865832e-1 5.155748365667495e-1 5.220599696640754e-1 5.286266756937996e-1
      5.352759807171004e-1 5.420089237014166e-1 5.488265566827858e-1 5.557299449302340e-1
      5.627201671122180e-1 5.697983154651763e-1 5.769654959641908e-1 5.842228284957940e-1
      5.915714470329614e-1 5.990124998122880e-1 6.065471495134106e-1 6.141765734406757e-1
      6.219019637070916e-1 6.297245274206073e-1 6.376454868727158e-1 6.456660797294481e-1
      6.537875592247570e-1 6.620111943563348e-1 6.703382700839041e-1 6.787700875299867e-1
      6.873079641832143e-1 6.959532341041856e-1 7.047072481339125e-1 7.135713741048995e-1
      7.225469970548613e-1 7.316355194431462e-1 7.408383613698694e-1 7.501569607978028e-1
      7.595927737770683e-1 7.691472746726387e-1 7.788219563947189e-1 7.886183306320129e-1
      7.985379280879229e-1 8.085822987197364e-1 8.187530119807969e-1 8.290516570657452e-1
      8.394798431588299e-1 8.500391996853422e-1 8.607313765662246e-1 8.715580444758659e-1
      8.825208951031550e-1 8.936216414158082e-1 9.048620179280185e-1 9.162437809714877e-1
      9.277687089698446e-1 9.394386027165380e-1 9.512552856562102e-1 9.632206041696085e-1
      9.753364278620975e-1 9.876046498557757e-1 1.000027187085291e0 1.012605980597361e0
      1.025342995854061e0 1.038240223039941e0 1.051299677372986e0 1.064523399419506e0
      1.077913455412977e0 1.091471937576886e0 1.105200964451660e0 1.119102681225677e0
      1.133179260070467e0 1.147432900480117e0 1.161865829614935e0 1.176480302649466e0
      1.191278603124853e0 1.206263043305652e0 1.221435964541132e0 1.236799737631100e0
      1.252356763196363e0 1.268109472053814e0 1.284060325596261e0 1.300211816177026e0
      1.316566467499368e0 1.333126835010835e0 1.349895506302536e0 1.366875101513482e0
      1.384068273739971e0 1.401477709450137e0 1.419106128903737e0 1.436956286577168e0
      1.455030971593888e0 1.473333008160206e0 1.491865256006565e0 1.510630610834401e0
      1.529632004768579e0 1.548872406815563e0 1.568354823327320e0 1.588082298471062e0
      1.608057914704921e0 1.628284793259570e0 1.648766094625936e0 1.669505019049031e0
      1.690504807027984e0 1.711768739822397e0 1.733300139965024e0 1.755102371780948e0
      1.777178841913249e0 1.799532999855294e0 1.822168338489748e0 1.845088394634319e0
      1.868296749594412e0 1.891797029722712e0 1.915592906985793e0 1.939688099537899e0
      1.964086372301881e0 1.988791537557499e0 2.013807455537092e0 2.039138035028732e0
      2.064787233987007e0 2.090759060151432e0 2.117057571672687e0 2.143686877746708e0
      2.170651139256737e0 2.197954569423503e0 2.225601434463511e0 2.253596054255675e0
      2.281942803016297e0 2.310646109982535e0 2.339710460104508e0 2.369140394746047e0
      2.398940512394317e0 2.429115469378337e0 2.459669980596515e0 2.490608820253405e0
      2.521936822605637e0 2.553658882717321e0 2.585779957224895e0 2.618305065111590e0
      2.651239288491696e0 2.684587773404613e0 2.718355730618961e0 2.752548436446760e0
      2.787171233567852e0 2.822229531864739e0 2.857728809267845e0 2.893674612611493e0
      2.930072558500594e0 2.966928334188234e0 3.004247698464359e0 3.042036482555553e0
      3.080300591036218e0 3.119046002751158e0 3.158278771749770e0 3.198005028232042e0
      3.238230979506362e0 3.278962910959461e0 3.320207187038505e0 3.361970252245533e0
      3.404258632144462e0 3.447078934380674e0 3.490437849713520e0 3.534342153061742e0
      3.578798704562048e0 3.623814450641071e0 3.669396425100707e0 3.715551750217211e0
      3.762287637854041e0 3.809611390588714e0 3.857530402853887e0 3.906052162092705e0
      3.955184249928775e0 4.004934343350790e0 4.055310215912047e0 4.106319738945140e0
      4.157970882791809e0 4.210271718048372e0 4.263230416826751e0 4.316855254031362e0
      4.371154608652133e0 4.426136965073682e0 4.481810914401068e0 4.538185155802153e0
      4.595268497866833e0 4.653069859983460e0 4.711598273732445e0 4.770862884297522e0
      4.830872951894674e0 4.891637853219040e0 4.953167082910093e0 5.015470255035139e0
      5.078557104591588e0 5.142437489028043e0 5.207121389784521e0 5.272618913852131e0
      5.338940295352249e0 5.406095897135674e0 5.474096212401824e0 5.542951866338286e0
      5.612673617781097e0 5.683272360895749e0 5.754759126879499e0 5.827145085684982e0
      5.900441547765512e0 5.974659965842433e0 6.049811936694546e0 6.125909202970205e0
      6.202963655022099e0 6.280987332765107e0 6.359992427557637e0 6.439991284106468e0
      6.520996402395704e0 6.603020439639897e0 6.686076212261721e0 6.770176697894651e0
      6.855335037410645e0 6.941564536973523e0 7.028878670118038e0 7.117291079855111e0
      7.206815580803666e0 7.297466161349089e0 7.389256985829032e0 7.482202396746585e0
      7.576316917011274e0 7.671615252208398e0 7.768112292896687e0 7.865823116935088e0
      7.964762991838667e0 8.064947377164142e0 8.166391926925575e0 8.269112492040231e0
      8.373125122805407e0 8.478446071406292e0 8.585091794455352e0 8.693078955563816e0
      8.802424427945278e0 8.913145297052278e0 9.025258863245892e0 9.138782644498905e0
      9.253734379133135e0 9.370132028590957e0 9.487993780241927e0 9.607338050224552e0
      9.728183486323786e0 9.850548970884921e0 9.974453623763836e0 1.009991680531465e1
      1.022695811941474e1 1.035559741652790e1 1.048585479680602e1 1.061775061322977e1
      1.075130547478881e1 1.088654024970201e1 1.102347606867805e1 1.116213432821727e1
      1.130253669395479e1 1.144470510404593e1 1.158866177259404e1 1.173442919312141e1
      1.188203014208410e1 1.203148768243065e1 1.218282516720584e1 1.233606624319957e1
      1.249123485464171e1 1.264835524694351e1 1.280745197048591e1 1.296854988445566e1
      1.313167416072960e1 1.329685028780773e1 1.346410407479601e1 1.363346165543887e1
      1.380494949220290e1 1.397859438041149e1 1.415442345243167e1 1.433246418191372e1
      1.451274438808379e1 1.469529224009090e1 1.488013626140836e1 1.506730533429051e1
      1.525682870428585e1 1.544873598480645e1 1.564305716175538e1 1.583982259821191e1
      1.603906303917576e1 1.624080961637123e1 1.644509385311141e1 1.665194766922395e1
      1.686140338603847e1 1.707349373143684e1 1.728825184496706e1 1.750571128302125e1
      1.772590602407905e1 1.794887047401679e1 1.817463947148332e1 1.840324829334389e1
      1.863473266019197e1 1.886912874193086e1 1.910647316342524e1 1.934680301022381e1
      1.959015583435413e1 1.983656966019001e1 2.008608299039312e1 2.033873481192896e1
      2.059456460215860e1 2.085361233500734e1 2.111591848721039e1 2.138152404463774e1
      2.165047050869815e1 2.192279990282372e1 2.219855477903644e1 2.247777822459665e1
      2.276051386873585e1 2.304680588947370e1 2.333669902052085e1 2.363023855826886e1
      2.392747036886765e1 2.422844089539241e1 2.453319716510025e1 2.484178679677827e1
      2.515425800818435e1 2.547065962358089e1 2.579104108136408e1 2.611545244178855e1
      2.644394439478932e1 2.677656826790243e1 2.711337603428471e1 2.745442032083494e1
      2.779975441641680e1 2.814943228018521e1 2.850350855001793e1 2.886203855105236e1
      2.922507830433067e1 2.959268453555298e1 2.996491468394068e1 3.034182691121191e1
      3.072348011066888e1 3.110993391640055e1 3.150124871260036e1 3.189748564300126e1
      3.229870662042986e1 3.270497433648009e1 3.311635227130916e1 3.353290470355644e1