<UPF version="2.0.1">
   <PP_INFO>
         UPF file from ATOMPAW code with following input
           Dy  66
           GGA-PBESOL  loggrid 2001 scalarrelativistic logderivrange -8 8 500
           6 5 5 4 0
           5 2 1
           4 3 9
           0 0 0
           c
           c
           c
           c
           v
           v
           c
           c
           c
           v
           c
           c
           v
           v
           3
           2.392 1.993 2.392 2.392
           n
           y
           2.0
           n
           y
           2.0
           n
           y
           2.0
           n
           VANDERBILT BESSELSHAPE
           4 0.0
           2.352
           2.352
           2.352
           2.352
           2.352
           2.352
           2.352
           2.352
           PWSCFOUT
           UPFDX  0.0125d0  UPFXMIN  -7.d0  UPFZMESH  66.0
           END
  </PP_INFO>
  <!--                               -->
  <!-- END OF HUMAN READABLE SECTION -->
  <PP_HEADER generated="Generated using ATOMPAW code"
             author="   "
             date=" 11/23/2022, 16:02:02.238"
             element="Dy"
             pseudo_type="PAW"
             relativistic="scalar"
             is_ultrasoft="T"
             is_paw="T"
             is_coulomb="F"
             has_so="F"
             has_wfc="T"
             has_gipaw="T"
             paw_as_gipaw="T"
             core_correction="T"
             functional="SLA PW PSX PSC"
             z_valence="20.000"
             l_max="3"
             l_max_rho="6"
             mesh_size="  1112"
             number_of_wfc="     8"
             number_of_proj=" 8"
                                    /> 
<PP_MESH dx=" 1.2500000000000E-02" mesh="  1112" xmin="-7.0000000000000E+00" zmesh=" 6.6000000000000E+01">
 <PP_R type="real" size="  1112" columns="3">
  1.38163934174926696E-05  1.39901822525609432E-05  1.41661570820694262E-05
  1.43443454024432415E-05  1.45247750559699976E-05  1.47074742351501341E-05
  1.48924714871021011E-05  1.50797957180228978E-05  1.52694761977047043E-05
  1.54615425641084041E-05  1.56560248279944989E-05  1.58529533776124009E-05
  1.60523589834486376E-05  1.62542728030348013E-05  1.64587263858160298E-05
  1.66657516780805791E-05  1.68753810279515646E-05  1.70876471904413998E-05
  1.73025833325698103E-05  1.75202230385463298E-05  1.77406003150177949E-05
  1.79637495963820131E-05  1.81897057501681941E-05  1.84185040824850722E-05
  1.86501803435375916E-05  1.88847707332128717E-05  1.91223119067365846E-05
  1.93628409804003716E-05  1.96063955373613326E-05  1.98530136335145455E-05
  2.01027338034392651E-05  2.03555950664201039E-05  2.06116369325438467E-05
  2.08708994088729859E-05  2.11334230056969500E-05  2.13992487428618416E-05
  2.16684181561799159E-05  2.19409733039196312E-05  2.22169567733773175E-05
  2.24964116875316191E-05  2.27793817117813983E-05  2.30659110607686599E-05
  2.33560445052871252E-05  2.36498273792777612E-05  2.39473055869123790E-05
  2.42485256097661253E-05  2.45535345140804039E-05  2.48623799581170596E-05
  2.51751101996050585E-05  2.54917741032809272E-05  2.58124211485238471E-05
  2.61371014370870056E-05  2.64658657009260567E-05  2.67987653101260695E-05
  2.71358522809283305E-05  2.74771792838578077E-05  2.78227996519531394E-05
  2.81727673891000160E-05  2.85271371784693553E-05  2.88859643910617650E-05
  2.92493050943592314E-05  2.96172160610858634E-05  2.99897547780787390E-05
  3.03669794552702904E-05  3.07489490347838488E-05  3.11357232001433182E-05
  3.15273623855989304E-05  3.19239277855702121E-05  3.23254813642076964E-05
  3.27320858650750711E-05  3.31438048209528065E-05  3.35607025637654083E-05
  3.39828442346333810E-05  3.44102957940516170E-05  3.48431240321959976E-05
  3.52813965793593006E-05  3.57251819165186813E-05  3.61745493860359617E-05
  3.66295692024924766E-05  3.70903124636603456E-05  3.75568511616114931E-05
  3.80292581939666456E-05  3.85076073752857294E-05  3.89919734486015118E-05
  3.94824320970984572E-05  3.99790599559382087E-05  4.04819346242340993E-05
  4.09911346771761641E-05  4.15067396783086126E-05  4.20288301919619471E-05
  4.25574877958410997E-05  4.30927950937722340E-05  4.36348357286097454E-05
  4.41836943953055725E-05  4.47394568541431320E-05  4.53022099441372780E-05
  4.58720415966032614E-05  4.64490408488961061E-05  4.70332978583228606E-05
  4.76249039162300031E-05  4.82239514622676791E-05  4.88305340988337346E-05
  4.94447466056992171E-05  5.00666849548179059E-05  5.06964463253223061E-05
  5.13341291187077505E-05  5.19798329742081011E-05  5.26336587843644513E-05
  5.32957087107898260E-05  5.39660862001322691E-05  5.46448960002383398E-05
  5.53322441765203573E-05  5.60282381285292713E-05  5.67329866067360652E-05
  5.74465997295243617E-05  5.81691890003964201E-05  5.89008673253959129E-05
  5.96417490307497449E-05  6.03919498807316729E-05  6.11515870957508780E-05
  6.19207793706676700E-05  6.26996468933399515E-05  6.34883113634027250E-05
  6.42868960112839410E-05  6.50955256174596988E-05  6.59143265319510476E-05
  6.67434266940667657E-05  6.75829556523939613E-05  6.84330445850403989E-05
  6.92938263201314081E-05  7.01654353565643330E-05  7.10480078850244084E-05
  7.19416818092648161E-05  7.28465967676543224E-05  7.37628941549964127E-05
  7.46907171446219983E-05  7.56302107107608573E-05  7.65815216511941553E-05
  7.75447986101916910E-05  7.85201921017382578E-05  7.95078545330512768E-05
  8.05079402283950801E-05  8.15206054531942453E-05  8.25460084384503835E-05
  8.35843094054662320E-05  8.46356705908803022E-05  8.57002562720167872E-05
  8.67782327925543186E-05  8.78697685885172883E-05  8.89750342145947341E-05
  9.00942023707893106E-05  9.12274479294024039E-05  9.23749479623581541E-05
  9.35368817688712238E-05  9.47134309034630435E-05  9.59047792043294999E-05
  9.71111128220664127E-05  9.83326202487558591E-05  9.95694923474183772E-05
  1.00821922381835966E-04  1.02090106046749500E-04  1.03374241498436771E-04
  1.04674529385674736E-04  1.05991172881091071E-04  1.07324377712910988E-04
  1.08674352197101504E-04  1.10041307269922599E-04  1.11425456520885396E-04
  1.12827016226126341E-04  1.14246205382201159E-04  1.15683245740302453E-04
  1.17138361840910156E-04  1.18611781048875349E-04  1.20103733588946884E-04
  1.21614452581744859E-04  1.23144174080185026E-04  1.24693137106364097E-04
  1.26261583688906198E-04  1.27849758900780761E-04  1.29457910897596152E-04
  1.31086290956373237E-04  1.32735153514809516E-04  1.34404756211034217E-04
  1.36095359923865401E-04  1.37807228813573087E-04  1.39540630363153639E-04
  1.41295835420126166E-04  1.43073118238851697E-04  1.44872756523386435E-04
  1.46695031470874129E-04  1.48540227815482229E-04  1.50408633872894129E-04
  1.52300541585357360E-04  1.54216246567301043E-04  1.56156048151526508E-04
  1.58120249435977336E-04  1.60109157331100833E-04  1.62123082607801939E-04
  1.64162339946002288E-04  1.66227247983810427E-04  1.68318129367307675E-04
  1.70435310800964613E-04  1.72579123098687536E-04  1.74749901235509428E-04
  1.76947984399931116E-04  1.79173716046918455E-04  1.81427443951570014E-04
  1.83709520263456040E-04  1.86020301561642964E-04  1.88360148910410497E-04
  1.90729427915666629E-04  1.93128508782076783E-04  1.95557766370907149E-04
  1.98017580258598181E-04  2.00508334796074855E-04  2.03030419168800431E-04
  2.05584227457589902E-04  2.08170158700183997E-04  2.10788616953600297E-04
  2.13440011357268712E-04  2.16124756196958424E-04  2.18843270969513326E-04
  2.21595980448397297E-04  2.24383314750066650E-04  2.27205709401177521E-04
  2.30063605406635545E-04  2.32957449318506554E-04  2.35887693305789244E-04
  2.38854795225067966E-04  2.41859218692054893E-04  2.44901433154028384E-04
  2.47981913963188317E-04  2.51101142450928108E-04  2.54259606003044843E-04
  2.57457798135895209E-04  2.60696218573505797E-04  2.63975373325659292E-04
  2.67295774766957046E-04  2.70657941716879330E-04  2.74062399520853242E-04
  2.77509680132336032E-04  2.81000322195937627E-04  2.84534871131581987E-04
  2.88113879219731143E-04  2.91737905687680752E-04  2.95407516796939308E-04
  2.99123285931708800E-04  3.02885793688476186E-04  3.06695627966733196E-04
  3.10553384060837257E-04  3.14459664753026394E-04  3.18415080407606524E-04
  3.22420249066320865E-04  3.26475796544920796E-04  3.30582356530951084E-04
  3.34740570682764266E-04  3.38951088729781864E-04  3.43214568574014744E-04
  3.47531676392862608E-04  3.51903086743205699E-04  3.56329482666804646E-04
  3.60811555797028462E-04  3.65350006466922338E-04  3.69945543818636874E-04
  3.74598885914233324E-04  3.79310759847881012E-04  3.84081901859468871E-04
  3.88913057449642924E-04  3.93804981496293134E-04  3.98758438372504779E-04
  4.03774202065992221E-04  4.08853056300037640E-04  4.13995794655948042E-04
  4.19203220697054210E-04  4.24476148094270049E-04  4.29815400753228783E-04
  4.35221812943021723E-04  4.40696229426552650E-04  4.46239505592534711E-04
  4.51852507589147129E-04  4.57536112459371220E-04  4.63291208278031764E-04
  4.69118694290558995E-04  4.75019481053498332E-04  4.80994490576787143E-04
  4.87044656467819186E-04  4.93170924077324666E-04  4.99374250647081344E-04
  5.05655605459486078E-04  5.12015969989008490E-04  5.18456338055545943E-04
  5.24977715979712514E-04  5.31581122740076395E-04  5.38267590132378228E-04
  5.45038162930752516E-04  5.51893899050973232E-04  5.58835869715757784E-04
  5.65865159622145827E-04  5.72982867110986079E-04  5.80190104338555441E-04
  5.87487997450333518E-04  5.94877686756966890E-04  6.02360326912444190E-04
  6.09937087094512874E-04  6.17609151187367071E-04  6.25377717966629494E-04
  6.33244001286665365E-04  6.41209230270247212E-04  6.49274649500608926E-04
  6.57441519215914765E-04  6.65711115506173023E-04  6.74084730512629154E-04
  6.82563672629663953E-04  6.91149266709233426E-04  6.99842854267880609E-04
  7.08645793696348163E-04  7.17559460471832206E-04  7.26585247372901104E-04
  7.35724564697120761E-04  7.44978840481417951E-04  7.54349520725211293E-04
  7.63838069616354213E-04  7.73445969759915374E-04  7.83174722409839610E-04
  7.93025847703520922E-04  8.03000884899330355E-04  8.13101392617123267E-04
  8.23328949081780196E-04  8.33685152369806901E-04  8.44171620659036324E-04
  8.54789992481475047E-04  8.65541926979322565E-04  8.76429104164219426E-04
  8.87453225179750892E-04  8.98616012567253312E-04  9.09919210534968826E-04
  9.21364585230575301E-04  9.32953925017155142E-04  9.44689040752628127E-04
  9.56571766072702697E-04  9.68603957677387434E-04  9.80787495621099391E-04
  9.93124283606429750E-04  1.00561624928160055E-03  1.01826534454166296E-03
  1.03107354583348776E-03  1.04404285446458461E-03  1.05717529691581316E-03
  1.07047292515802467E-03  1.08393781697268513E-03  1.09757207627653717E-03
  1.11137783345033542E-03  1.12535724567172581E-03  1.13951249725230950E-03
  1.15384579997894433E-03  1.16835939345934421E-03  1.18305554547201773E-03
  1.19793655232061647E-03  1.21300473919273605E-03  1.22826246052323081E-03
  1.24371210036210308E-03  1.25935607274700861E-03  1.27519682208046070E-03
  1.29123682351177079E-03  1.30747858332379546E-03  1.32392463932455139E-03
  1.34057756124374714E-03  1.35743995113431389E-03  1.37451444377897805E-03
  1.39180370710195300E-03  1.40931044258581044E-03  1.42703738569358615E-03
  1.44498730629620694E-03  1.46316300910528593E-03  1.48156733411136427E-03
  1.50020315702767111E-03  1.51907338973945069E-03  1.53818098075895592E-03
  1.55752891568615806E-03  1.57712021767525217E-03  1.59695794790703539E-03
  1.61704520606721527E-03  1.63738513083074716E-03  1.65798090035225746E-03
  1.67883573276263577E-03  1.69995288667187483E-03  1.72133566167823895E-03
  1.74298739888382472E-03  1.76491148141662149E-03  1.78711133495912996E-03
  1.80959042828363059E-03  1.83235227379419238E-03  1.85540042807548402E-03
  1.87873849244850431E-03  1.90237011353329259E-03  1.92629898381872105E-03
  1.95052884223945807E-03  1.97506347476017734E-03  1.99990671496712551E-03
  2.02506244466712886E-03  2.05053459449413200E-03  2.07632714452337091E-03
  2.10244412489326215E-03  2.12888961643512399E-03  2.15566775131081304E-03
  2.18278271365838312E-03  2.21023874024587003E-03  2.23804012113328586E-03
  2.26619120034295650E-03  2.29469637653828291E-03  2.32356010371103728E-03
  2.35278689187731847E-03  2.38238130778223745E-03  2.41234797561349018E-03
  2.44269157772389204E-03  2.47341685536300610E-03  2.50452860941797811E-03
  2.53603170116367509E-03  2.56793105302227567E-03  2.60023164933240701E-03
  2.63293853712795673E-03  2.66605682692668943E-03  2.69959169352876512E-03
  2.73354837682531632E-03  2.76793218261719336E-03  2.80274848344400432E-03
  2.83800271942359151E-03  2.87370039910205032E-03  2.90984710031445782E-03
  2.94644847105641908E-03  2.98351023036657649E-03  3.02103816922023004E-03
  3.05903815143417383E-03  3.09751611458294104E-03  3.13647807092655743E-03
  3.17593010834996701E-03  3.21587839131428927E-03  3.25632916182001016E-03
  3.29728874038231817E-03  3.33876352701869671E-03  3.38076000224893673E-03
  3.42328472810774073E-03  3.46634434917003804E-03  3.50994559358922594E-03
  3.55409527414845194E-03  3.59880028932512341E-03  3.64406762436882093E-03
  3.68990435239273948E-03  3.73631763547888768E-03  3.78331472579717743E-03
  3.83090296673858259E-03  3.87908979406257704E-03  3.92788273705896394E-03
  3.97728941972435440E-03  4.02731756195343592E-03  4.07797498074520971E-03
  4.12926959142443425E-03  4.18120940887838164E-03  4.23380254880920386E-03
  4.28705722900201563E-03  4.34098177060894107E-03  4.39558459944932364E-03
  4.45087424732625633E-03  4.50685935335970803E-03  4.56354866533639856E-03
  4.62095104107665584E-03  4.67907544981848323E-03  4.73793097361899836E-03
  4.79752680877353586E-03  4.85787226725258904E-03  4.91897677815681441E-03
  4.98084988919036617E-03  5.04350126815272196E-03  5.10694070444931043E-03
  5.17117811062112014E-03  5.23622352389355346E-03  5.30208710774477971E-03
  5.36877915349377038E-03  5.43631008190836006E-03  5.50469044483350729E-03
  5.57393092684003565E-03  5.64404234689413684E-03  5.71503566004783435E-03
  5.78692195915074450E-03  5.85971247658335654E-03  5.93341858601210623E-03
  6.00805180416656009E-03  6.08362379263889096E-03  6.16014635970605056E-03
  6.23763146217483008E-03  6.31609120725012702E-03  6.39553785442675046E-03
  6.47598381740495214E-03  6.55744166603011366E-03  6.63992412825681159E-03
  6.72344409213757391E-03  6.80801460783669182E-03  6.89364888966929878E-03
  6.98036031816615284E-03  7.06816244216437392E-03  7.15706898092446486E-03
  7.24709382627400193E-03  7.33825104477822156E-03  7.43055487993797559E-03
  7.52401975441530091E-03  7.61866027228698395E-03  7.71449122132650440E-03
  7.81152757531461059E-03  7.90978449637903640E-03  8.00927733736360101E-03
  8.11002164422712502E-03  8.21203315847253423E-03  8.31532781960646339E-03
  8.41992176762987321E-03  8.52583134555994111E-03  8.63307310198368170E-03
  8.74166379364373948E-03  8.85162038805660696E-03  8.96296006616387024E-03
  9.07570022501675427E-03  9.18985848049444498E-03  9.30545267005663569E-03
  9.42250085553061195E-03  9.54102132593349049E-03  9.66103260032990553E-03
  9.78255343072563684E-03  9.90560280499768776E-03  1.00301999498611238E-02
  1.01563643338733276E-02  1.02841156704759819E-02  1.04134739210753370E-02
  1.05444592981612448E-02  1.06770922684653585E-02  1.08113935561591351E-02
  1.09473841460920093E-02  1.10850852870703308E-02  1.12245184951775458E-02
  1.13657055571360910E-02  1.15086685337116509E-02  1.16534297631601669E-02
  1.18000118647182562E-02  1.19484377421375260E-02  1.20987305872632921E-02
  1.22509138836583761E-02  1.24050114102724623E-02  1.25610472451575805E-02
  1.27190457692304155E-02  1.28790316700817947E-02  1.30410299458342156E-02
  1.32050659090478563E-02  1.33711651906756879E-02  1.35393537440684220E-02
  1.37096578490296939E-02  1.38821041159223960E-02  1.40567194898265687E-02
  1.42335312547496335E-02  1.44125670378896075E-02  1.45938548139518502E-02
  1.47774229095201989E-02  1.49633000074830616E-02  1.51515151515151519E-02
  1.53420977506156762E-02  1.55350775837034740E-02  1.57304848042700840E-02
  1.59283499450912844E-02  1.61287039229978668E-02  1.63315780437065412E-02
  1.65370040067113928E-02  1.67450139102370936E-02  1.69556402562542619E-02
  1.71689159555579729E-02  1.73848743329101905E-02  1.76035491322467201E-02
  1.78249745219498656E-02  1.80491851001872566E-02  1.82762159003178881E-02
  1.85061023963662141E-02  1.87388805085649257E-02  1.89745866089676522E-02
  1.92132575271321271E-02  1.94549305558748692E-02  1.96996434570983515E-02
  1.99474344676912434E-02  2.01983423055030822E-02  2.04524061753940008E-02
  2.07096657753605487E-02  2.09701613027386616E-02  2.12339334604844526E-02
  2.15010234635342121E-02  2.17714730452443252E-02  2.20453244639121394E-02
  2.23226205093790264E-02  2.26034045097162246E-02  2.28877203379950524E-02
  2.31756124191421185E-02  2.34671257368808048E-02  2.37623058407601395E-02
  2.40611988532718792E-02  2.43638514770573300E-02  2.46703110022047124E-02
  2.49806253136383057E-02  2.52948428986006536E-02  2.56130128542286645E-02
  2.59351848952252308E-02  2.62614093616272172E-02  2.65917372266711895E-02
  2.69262201047581612E-02  2.72649102595183233E-02  2.76078606119774250E-02
  2.79551247488257736E-02  2.83067569307912485E-02  2.86628121011177281E-02
  2.90233458941499510E-02  2.93884146440265906E-02  2.97580753934825540E-02
  3.01323859027619982E-02  3.05114046586435934E-02  3.08951908835790254E-02
  3.12838045449467805E-02  3.16773063644220781E-02  3.20757578274647667E-02
  3.24792211929266633E-02  3.28877595027794387E-02  3.33014365919651958E-02
  3.37203170983707487E-02  3.41444664729274039E-02  3.45739509898379399E-02
  3.50088377569318862E-02  3.54491947261513923E-02  3.58950907041688111E-02
  3.63465953631378486E-02  3.68037792515801335E-02  3.72667138054083441E-02
  3.77354713590883697E-02  3.82101251569416656E-02  3.86907493645897993E-02
  3.91774190805431327E-02  3.96702103479348728E-02  4.01692001664031503E-02
  4.06744665041223058E-02  4.11860883099855329E-02  4.17041455259410179E-02
  4.22287190994826006E-02  4.27598909962984761E-02  4.32977442130782694E-02
  4.38423627904812319E-02  4.43938318262682569E-02  4.49522374885980083E-02
  4.55176670294913932E-02  4.60902087984646283E-02  4.66699522563338021E-02
  4.72569879891938660E-02  4.78514077225722576E-02  4.84533043357617335E-02
  4.90627718763327753E-02  4.96799055748283827E-02  5.03048018596447127E-02
  5.09375583720974301E-02  5.15782739816790584E-02  5.22270488015072268E-02
  5.28839842039672964E-02  5.35491828365526265E-02  5.42227486379027318E-02
  5.49047868540445544E-02  5.55954040548370734E-02  5.62947081506227839E-02
  5.70028084090896114E-02  5.77198154723433735E-02  5.84458413741965610E-02
  5.91809995576735581E-02  5.99254048927360186E-02  6.06791736942322579E-02
  6.14424237400708548E-02  6.22152742896244088E-02  6.29978461023637942E-02
  6.37902614567266713E-02  6.45926441692245834E-02  6.54051196137885593E-02
  6.62278147413599555E-02  6.70608580997263254E-02  6.79043798536070331E-02
  6.87585118049925392E-02  6.96233874137377334E-02  7.04991418184161972E-02
  7.13859118574355217E-02  7.22838360904182187E-02  7.31930548198527764E-02
  7.41137101130152492E-02  7.50459458241683752E-02  7.59899076170388321E-02
  7.69457429875769899E-02  7.79136012870044192E-02  7.88936337451492525E-02
  7.98859934940771149E-02  8.08908355920178734E-02  8.19083170475934375E-02
  8.29385968443515920E-02  8.39818359656064189E-02  8.50381974195932588E-02
  8.61078462649386006E-02  8.71909496364504655E-02  8.82876767712345439E-02
  8.93981990351366412E-02  9.05226899495200216E-02  9.16613252183780258E-02
  9.28142827557876665E-02  9.39817427137101813E-02  9.51638875101388781E-02
  9.63609018576034732E-02  9.75729727920312678E-02  9.88002897019713971E-02
  1.00043044358188393E-01  1.01301430943625329E-01  1.02575646083746572E-01
  1.03865888877260337E-01  1.05172360927227815E-01  1.06495266372565164E-01
  1.07834811919939350E-01  1.09191206876067648E-01  1.10564663180421768E-01
  1.11955395438343194E-01  1.13363620954577055E-01  1.14789559767224977E-01
  1.16233434682127684E-01  1.17695471307678448E-01  1.19175898090074117E-01
  1.20674946349011825E-01  1.22192850313831439E-01  1.23729847160115855E-01
  1.25286177046749603E-01  1.26862083153443411E-01  1.28457811718733050E-01
  1.30073612078452971E-01  1.31709736704696989E-01  1.33366441245266865E-01
  1.35043984563617242E-01  1.36742628779305014E-01  1.38462639308944369E-01
  1.40204284907680138E-01  1.41967837711180850E-01  1.43753573278159491E-01
  1.45561770633432008E-01  1.47392712311513435E-01  1.49246684400766383E-01
  1.51123976588101921E-01  1.53024882204243234E-01  1.54949698269560759E-01
  1.56898725540480233E-01  1.58872268556478347E-01  1.60870635687666824E-01
  1.62894139182975073E-01  1.64943095218941654E-01  1.67017823949115213E-01
  1.69118649554081291E-01  1.71245900292114978E-01  1.73399908550471549E-01
  1.75581010897324280E-01  1.77789548134351716E-01  1.80025865349990849E-01
  1.82290311973356656E-01  1.84583241828840505E-01  1.86905013191397990E-01
  1.89255988842527478E-01  1.91636536126957913E-01  1.94047027010046086E-01
  1.96487838135895959E-01  1.98959350886212555E-01  2.01461951439890735E-01
  2.03996030833359238E-01  2.06561985021678246E-01  2.09160214940410538E-01
  2.11791126568267374E-01  2.14455130990542531E-01  2.17152644463347699E-01
  2.19884088478650375E-01  2.22649889830135478E-01  2.25450480679891652E-01
  2.28286298625936246E-01  2.31157786770593621E-01  2.34065393789727683E-01
  2.37009574002851081E-01  2.39990787444112619E-01  2.43009499934176920E-01
  2.46066183153013013E-01  2.49161314713591847E-01  2.52295378236517320E-01
  2.55468863425591663E-01  2.58682266144331208E-01  2.61936088493449459E-01
  2.65230838889307430E-01  2.68567032143358198E-01  2.71945189542585730E-01
  2.75365838930955564E-01  2.78829514791895050E-01  2.82336758331803273E-01
  2.85888117564619459E-01  2.89484147397449543E-01  2.93125409717269969E-01
  2.96812473478727579E-01  3.00545914793035329E-01  3.04326317017994952E-01
  3.08154270849145873E-01  3.12030374412061162E-01  3.15955233355809606E-01
  3.19929460947585231E-01  3.23953678168535486E-01  3.28028513810789013E-01
  3.32154604575704115E-01  3.36332595173358562E-01  3.40563138423282175E-01
  3.44846895356465621E-01  3.49184535318645461E-01  3.53576736074889708E-01
  3.58024183915503780E-01  3.62527573763259892E-01  3.67087609281984528E-01
  3.71705002986505662E-01  3.76380476353982529E-01  3.81114759936642400E-01
  3.85908593475925710E-01  3.90762726018076711E-01  3.95677916031181687E-01
  4.00654931523678814E-01  4.05694550164366008E-01  4.10797559403907719E-01
  4.15964756597880292E-01  4.21196949131358966E-01  4.26494954545070526E-01
  4.31859600663141163E-01  4.37291725722439906E-01  4.42792178503559730E-01
  4.48361818463439088E-01  4.54001515869651873E-01  4.59712151936393310E-01
  4.65494618962165652E-01  4.71349820469206982E-01  4.77278671344666172E-01
  4.83282097983553038E-01  4.89361038433495821E-01  4.95516442541305668E-01
  5.01749272101398636E-01  5.08060501006075249E-01  5.14451115397690173E-01
  5.20922113822745891E-01  5.27474507387909797E-01  5.34109319918008141E-01
  5.40827588115998625E-01  5.47630361724953607E-01  5.54518703692091441E-01
  5.61493690334857520E-01  5.68556411509106074E-01  5.75707970779390954E-01
  5.82949485591396033E-01  5.90282087446545756E-01  5.97706922078796277E-01
  6.05225149633665693E-01  6.12837944849506600E-01  6.20546497241057593E-01
  6.28352011285315371E-01  6.36255706609727412E-01  6.44258818182769422E-01
  6.52362596506908532E-01  6.60568307813992561E-01  6.68877234263110410E-01
  6.77290674140922033E-01  6.85809942064526723E-01  6.94436369186871461E-01
  7.03171303404742098E-01  7.12016109569384104E-01  7.20972169699753085E-01
  7.30040883198466939E-01  7.39223667070461499E-01  7.48521956144396761E-01
  7.57937203296860762E-01  7.67470879679373774E-01  7.77124474948268196E-01
  7.86899497497446809E-01  7.96797474694067476E-01  8.06819953117207445E-01
  8.16968498799508613E-01  8.27244697471882340E-01  8.37650154811280134E-01
  8.48186496691578085E-01  8.58855369437634408E-01  8.69658440082518802E-01
  8.80597396627999740E-01  8.91673948308294828E-01  9.02889825857136175E-01
  9.14246781778212947E-01  9.25746590618990450E-01  9.37391049247998209E-01
  9.49181977135589605E-01  9.61121216638232467E-01  9.73210633286393234E-01
  9.85452116076015350E-01  9.97847577763692373E-01  1.01039895516553346E+00
  1.02310820945979009E+00  1.03597732649330632E+00  1.04900831709179765E+00
  1.06220321737405854E+00  1.07556408907010503E+00  1.08909301984331930E+00
  1.10279212361666268E+00  1.11666354090296727E+00  1.13070943913940769E+00
  1.14493201302616177E+00  1.15933348486933174E+00  1.17391610492819654E+00
  1.18868215176680536E+00  1.20363393261002027E+00  1.21877378370401979E+00
  1.23410407068133554E+00  1.24962718893050173E+00  1.26534556397032238E+00
  1.28126165182887886E+00  1.29737793942728263E+00  1.31369694496825606E+00
  1.33022121832962004E+00  1.34695334146270196E+00  1.36389592879578503E+00
  1.38105162764261280E+00  1.39842311861602853E+00  1.41601311604684454E+00
  1.43382436840794170E+00  1.45185965874374046E+00  1.47012180510505219E+00
  1.48861366098939496E+00  1.50733811578687793E+00  1.52629809523165338E+00
  1.54549656185908613E+00  1.56493651546864920E+00  1.58462099359263986E+00
  1.60455307197081853E+00  1.62473586503097822E+00  1.64517252637559985E+00
  1.66586624927460014E+00  1.68682026716427802E+00  1.70803785415256559E+00
  1.72952232553059160E+00  1.75127703829072212E+00  1.77330539165108947E+00
  1.79561082758671731E+00  1.81819683136735688E+00  1.84106693210204497E+00
  1.86422470329055368E+00  1.88767376338174930E+00  1.91141777633897236E+00
  1.93546045221256113E+00  1.95980554771952975E+00  1.98445686683058486E+00
  2.00941826136449464E+00  2.03469363158993222E+00  2.06028692683492620E+00
  2.08620214610392019E+00  2.11244333870265422E+00  2.13901460487086359E+00
  2.16592009642293970E+00  2.19316401739668398E+00  2.22075062471016960E+00
  2.24868422882691821E+00  2.27696919442940882E+00  2.30560994110105488E+00
  2.33461094401680169E+00  2.36397673464235014E+00  2.39371190144223434E+00
  2.42382109059676765E+00  2.45430900672800512E+00  2.48518041363487852E+00
  2.51644013503751696E+00  2.54809305533099151E+00  2.58014412034850205E+00
  2.61259833813415643E+00  2.64546077972552185E+00  2.67873657994594616E+00
  2.71243093820691916E+00  2.74654911932047519E+00  2.78109645432181818E+00
  2.81607834130233803E+00  2.85150024625303766E+00  2.88736770391863606E+00
  2.92368631866237250E+00  2.96046176534168115E+00  2.99769979019493560E+00
  3.03540621173927017E+00  3.07358692167977088E+00  3.11224788583005108E+00
  3.15139514504440355E+00  3.19103481616173879E+00  3.23117309296130406E+00
  3.27181624713051677E+00  3.31297062924491170E+00  3.35464266976041170E+00
  3.39683888001814083E+00  3.43956585326178965E+00  3.48283026566786136E+00
  3.52663887738882265E+00  3.57099853360937303E+00  3.61591616561605855E+00
  3.66139879188025397E+00  3.70745351915485433E+00  3.75408754358470187E+00
  3.80130815183097859E+00  3.84912272220980700E+00  3.89753872584507510E+00
  3.94656372783586029E+00  3.99620538843847362E+00  4.04647146426336590E+00
  4.09736980948716667E+00  4.14890837707985671E+00  4.20109522004748470E+00
  4.25393849269044733E+00  4.30744645187759012E+00  4.36162745833641452E+00
  4.41648997795939646E+00  4.47204258312685266E+00  4.52829395404637225E+00
  4.58525288010908838E+00  4.64292826126309954E+00  4.70132910940403637E+00
  4.76046454978324540E+00  4.82034382243360682E+00  4.88097628361328084E+00
  4.94237140726770185E+00  5.00453878650983164E+00  5.06748813511916740E+00
  5.13122928905950815E+00  5.19577220801582396E+00  5.26112697695053200E+00
  5.32730380767922451E+00  5.39431304046634974E+00  5.46216514564087419E+00
  5.53087072523225576E+00  5.60044051462710968E+00  5.67088538424654764E+00
  5.74221634124478086E+00  5.81444453122897276E+00  5.88758124000073924E+00
  5.96163789531964294E+00  6.03662606868872675E+00  6.11255747716265319E+00
  6.18944398517849326E+00  6.26729760640952716E+00  6.34613050564248926E+00
  6.42595500067825132E+00  6.50678356425657434E+00  6.58862882600497901E+00
  6.67150357441210495E+00  6.75542075882602333E+00  6.84039349147750819E+00
  6.92643504952892375E+00  7.01355887714878179E+00  7.10177858761237868E+00
  7.19110796542898356E+00  7.28156096849559642E+00  7.37315173027798831E+00
  7.46589456201904245E+00  7.55980395497487923E+00  7.65489458267923428E+00
  7.75118130323612409E+00  7.84867916164154522E+00  7.94740339213424907E+00
  8.04736942057607685E+00  8.14859286686238526E+00  8.25108954736256806E+00
  8.35487547739149683E+00  8.45996687371190959E+00  8.56638015706826117E+00
  8.67413195475260324E+00  8.78323910320252210E+00  8.89371865063195166E+00
  9.00558785969497322E+00  9.11886421018306415E+00  9.23356540175648632E+00
  9.34970935670975223E+00  9.46731422277213497E+00  9.58639837594324362E+00
  9.70698042336425537E+00  9.82907920622543863E+00  9.95271380270999728E+00
  1.00779035309751794E+01  1.02046679521707500E+01  1.03330268734953865E+01
  1.04630003512917327E+01  1.05946086941800885E+01  1.07278724662318083E+01
  1.08628124901824226E+01  1.09994498506851723E+01  1.11378058976056646E+01
  1.12779022493576822E+01  1.14197607962812313E+01  1.15634037040629032E+01
  1.17088534171992418E+01  1.18561326625038870E+01  1.20052644526585155E+01
  1.21562720898087715E+01  1.23091791692052119E+01  1.24640095828900375E+01
  1.26207875234304367E+01  1.27795374876985388E+01  1.29402842806992666E+01
  1.31030530194460884E+01  1.32678691368855439E+01  1.34347583858713513E+01
  1.36037468431881567E+01  1.37748609136262470E+01  1.39481273341072871E+01
  1.41235731778619442E+01  1.43012258586602989E+01  1.44811131350951143E+01