<?xml version="1.0" encoding="UTF-8"?>
<UPF version="2.0.1">
  <PP_INFO><![CDATA[
Generated using "atomic" code by A. Dal Corso  v.6.3MaX
Author: MS
Generation date: 11Apr2023
Pseudopotential type: PAW
Element: Fm
Functional:  SLA  PW   PSX  PSC
    Suggested minimum cutoff for wavefunctions:  72. Ry
    Suggested minimum cutoff for charge density: 372. Ry
    The Pseudo was generated with a Scalar-Relativistic Calculation
    Local Potential according to Troullier-Martins recipe, cutoff radius:   1.2500
    Pseudopotential contains additional information for GIPAW reconstruction.
    Valence configuration:
    nl pn  l   occ       Rcut    Rcut US       E pseu
    6S  1  0  2.00      1.200      1.600    -4.421552
    7S  2  0  2.00      1.200      1.600    -0.299550
    6P  2  1  6.00      1.300      1.900    -1.834669
    6D  3  2  0.00      1.400      2.000    -0.037414
    5F  4  3 12.00      1.300      1.900    -0.367103
    Generation configuration:
    6S  1  0  2.00      1.200      1.600    -4.421582
    7S  2  0  2.00      1.200      1.600    -0.299562
    6P  2  1  6.00      1.300      1.900    -1.834693
    7P  3  1  0.00      1.300      1.900     4.500000
    6D  3  2  0.00      1.400      2.000    -0.037424
    6D  3  2  0.00      1.400      2.000     3.000000
    5F  4  3 12.00      1.300      1.900    -0.367146
    5F  4  3  0.00      1.200      1.950     1.350000
    Pseudization used: troullier-martins
]]>
    <PP_INPUTFILE><![CDATA[
&input
 title = 'Fermium'
 atom = 'Fm',
 dft = 'PBESOL',
 config = '[Rn] 5f12.0 6d0.0 7s2.0 7p0',
 rel = 1,
 iswitch = 3
/
&inputp
   lpaw=.true.
   pseudotype=3,
   file_pseudopw='Fm.paw.z_22.ld1.uni-marburg.v0.upf',
   author='MS',
   lloc = -2,
   rcloc = 1.25
   nlcc = .true.
   new_core_ps=.true.
   rcore = 1.0,
   which_augfun='PSQ',
   rmatch_augfun = 1.40,
   rmatch_augfun_nc = .true.,
   tm=.true.,
   lgipaw_reconstruction=.true.,
   use_paw_as_gipaw=.true.,
 /
8
6S  1  0  2.00  0.00  1.20  1.60  0.0
7S  2  0  2.00  0.00  1.20  1.60  0.0
6P  2  1  6.00  0.00  1.30  1.90  0.0
7P  3  1  0.00  4.50  1.30  1.90  0.0
6D  3  2  0.00  0.00  1.40  2.00  0.0
6D  3  2  0.00  3.00  1.40  2.00  0.0
5F  4  3 12.00  0.00  1.30  1.90  0.0
5F  4  3  0.00  1.35  1.20  1.95  0.0
]]></PP_INPUTFILE>
  </PP_INFO>
  <!--
 END OF HUMAN READABLE SECTION 
-->
  <PP_HEADER generated="Generated using &quot;atomic&quot; code by A. Dal Corso  v.6.3MaX" author="MS" date="11Apr2023" comment="" element="Fm" pseudo_type="PAW" relativistic="scalar" is_ultrasoft="true" is_paw="true" is_coulomb="false" has_so="false" has_wfc="true" has_gipaw="true" paw_as_gipaw="true" core_correction="true" functional=" SLA  PW   PSX  PSC" z_valence="2.200000000000e1" total_psenergy="-1.364000340494e3" wfc_cutoff="7.182913143130e1" rho_cutoff="3.718640135084e2" l_max="3" l_max_rho="6" l_local="-2" mesh_size="1297" number_of_wfc="5" number_of_proj="8"/>
  <PP_MESH dx="1.250000000000e-2" mesh="1297" xmin="-7.000000000000e0" rmax="1.000000000000e2" zmesh="1.000000000000e2">
    <PP_R>
      9.118819655545161e-6 9.233520286690222e-6 9.349663674165821e-6 9.467267965612539e-6
      9.586351536940196e-6 9.706932995199089e-6 9.829031181487386e-6 9.952665173895113e-6
      1.007785429048511e-5 1.020461809231155e-5 1.033297638647637e-5 1.046294922922419e-5
      1.059455692907610e-5 1.072782005000297e-5 1.086275941463858e-5 1.099939610753318e-5
      1.113775147844803e-5 1.127784714569132e-5 1.141970499949607e-5 1.156334720544058e-5
      1.170879620791174e-5 1.185607473361213e-5 1.200520579511101e-5 1.215621269444015e-5
      1.230911902673481e-5 1.246394868392050e-5 1.262072585844614e-5 1.277947504706424e-5
      1.294022105465848e-5 1.310298899811960e-5 1.326780431026992e-5 1.343469274383727e-5
      1.360368037547894e-5 1.377479360985617e-5 1.394805918375999e-5 1.412350417028882e-5
      1.430115598307874e-5 1.448104238058696e-5 1.466319147042903e-5 1.484763171377087e-5
      1.503439192977572e-5 1.522350130010732e-5 1.541498937348950e-5 1.560888607032332e-5
      1.580522168736217e-5 1.600402690244564e-5 1.620533277929307e-5 1.640917077235726e-5
      1.661557273173934e-5 1.682457090816541e-5 1.703619795802574e-5 1.725048694847742e-5
      1.746747136261120e-5 1.768718510468321e-5 1.790966250541269e-5 1.813493832734615e-5
      1.836304777028907e-5 1.859402647680601e-5 1.882791053778977e-5 1.906473649810076e-5
      1.930454136227709e-5 1.954736260031667e-5 1.979323815353197e-5 2.004220644047840e-5
      2.029430636295734e-5 2.054957731209459e-5 2.080805917449529e-5 2.106979233847634e-5
      2.133481770037708e-5 2.160317667094954e-5 2.187491118182885e-5 2.215006369208517e-5
      2.242867719485803e-5 2.271079522407407e-5 2.299646186124937e-5 2.328572174237714e-5
      2.357862006490233e-5 2.387520259478373e-5 2.417551567364503e-5 2.447960622601583e-5
      2.478752176666358e-5 2.509931040801799e-5 2.541502086768857e-5 2.573470247607700e-5
      2.605840518408498e-5 2.638617957091922e-5 2.671807685199450e-5 2.705414888693626e-5
      2.739444818768369e-5 2.773902792669488e-5 2.808794194525512e-5 2.844124476188967e-5
      2.879899158088243e-5 2.916123830090168e-5 2.952804152373447e-5 2.989945856313060e-5
      3.027554745375815e-5 3.065636696027144e-5 3.104197658649309e-5 3.143243658471181e-5
      3.182780796509666e-5 3.222815250523026e-5 3.263353275976149e-5 3.304401207017982e-5
      3.345965457471272e-5 3.388052521834712e-5 3.430668976297734e-5 3.473821479768053e-5
      3.517516774912128e-5 3.561761689208729e-5 3.606563136015731e-5 3.651928115650343e-5
      3.697863716482932e-5 3.744377116044580e-5 3.791475582148608e-5 3.839166474026163e-5
      3.887457243476131e-5 3.936355436029483e-5 3.985868692128291e-5 4.036004748319558e-5
      4.086771438464067e-5 4.138176694960437e-5 4.190228549984579e-5 4.242935136744740e-5
      4.296304690752340e-5 4.350345551108769e-5 4.405066161808406e-5 4.460475073058002e-5
      4.516580942612666e-5 4.573392537128673e-5 4.630918733533246e-5 4.689168520411612e-5
      4.748150999411477e-5 4.807875386665186e-5 4.868351014229763e-5 4.929587331545051e-5
      4.991593906910218e-5 5.054380428978814e-5 5.117956708272652e-5 5.182332678714724e-5
      5.247518399181384e-5 5.313524055074076e-5 5.380359959910820e-5 5.448036556937725e-5
      5.516564420760771e-5 5.585954258998099e-5 5.656216913953108e-5 5.727363364308584e-5
      5.799404726842141e-5 5.872352258163252e-5 5.946217356472094e-5 6.021011563340560e-5
      6.096746565515637e-5 6.173434196745501e-5 6.251086439628562e-5 6.329715427485747e-5
      6.409333446256383e-5 6.489952936417886e-5 6.571586494929614e-5 6.654246877201174e-5
      6.737946999085467e-5 6.822699938896828e-5 6.908518939454533e-5 6.995417410152011e-5
      7.083408929052125e-5 7.172507245008699e-5 7.262726279814892e-5 7.354080130378437e-5
      7.446583070924337e-5 7.540249555225277e-5 7.635094218859962e-5 7.731131881500071e-5
      7.828377549225774e-5 7.926846416870495e-5 8.026553870395162e-5 8.127515489292211e-5
      8.229747049020030e-5 8.333264523467808e-5 8.438084087451530e-5 8.544222119241345e-5
      8.651695203120633e-5 8.760520131977428e-5 8.870713909928259e-5 8.982293754975114e-5
      9.095277101695824e-5 9.209681603968139e-5 9.325525137728327e-5 9.442825803764212e-5
      9.561601930543505e-5 9.681872077077692e-5 9.803655035821828e-5 9.926969835611011e-5
      1.005183574463359e-4 1.017827227344187e-4 1.030629917800075e-4 1.043593646277450e-4
      1.056720438385266e-4 1.070012345211493e-4 1.083471443643615e-4 1.097099836693149e-4
      1.110899653824231e-4 1.124873051286367e-4 1.139022212451338e-4 1.153349348154362e-4
      1.167856697039545e-4 1.182546525909662e-4 1.197421130080362e-4 1.212482833738810e-4
      1.227733990306843e-4 1.243176982808709e-4 1.258814224243400e-4 1.274648157961707e-4
      1.290681258047987e-4 1.306916029706748e-4 1.323355009654094e-4 1.340000766514083e-4
      1.356855901220094e-4 1.373923047421215e-4 1.391204871893762e-4 1.408704074957974e-4
      1.426423390899926e-4 1.444365588398788e-4 1.462533470959422e-4 1.480929877350440e-4
      1.499557682047772e-4 1.518419795683795e-4 1.537519165502143e-4 1.556858775818209e-4
      1.576441648485449e-4 1.596270843367562e-4 1.616349458816587e-4 1.636680632157043e-4
      1.657267540176126e-4 1.678113399620096e-4 1.699221467696908e-4 1.720595042585138e-4
      1.742237463949352e-4 1.764152113461916e-4 1.786342415331404e-4 1.808811836837631e-4
      1.831563888873418e-4 1.854602126493188e-4 1.877930149468441e-4 1.901551602850225e-4
      1.925470177538693e-4 1.949689610859799e-4 1.974213687149278e-4 1.999046238343943e-4
      2.024191144580439e-4 2.049652334801526e-4 2.075433787369974e-4 2.101539530690203e-4
      2.127973643837718e-4 2.154740257196477e-4 2.181843553104277e-4 2.209287766506244e-4
      2.237077185616561e-4 2.265216152588497e-4 2.293709064192893e-4 2.322560372505158e-4
      2.351774585600911e-4 2.381356268260388e-4 2.411310042681687e-4 2.441640589203003e-4
      2.472352647033940e-4 2.503451014996015e-4 2.534940552272494e-4 2.566826179167644e-4
      2.599112877875535e-4 2.631805693258531e-4 2.664909733635548e-4 2.698430171580248e-4
      2.732372244729256e-4 2.766741256600558e-4 2.801542577422182e-4 2.836781644971310e-4
      2.872463965423943e-4 2.908595114215248e-4 2.945180736910729e-4 2.982226550088371e-4
      3.019738342231850e-4 3.057721974635009e-4 3.096183382317690e-4 3.135128574953089e-4
      3.174563637806795e-4 3.214494732687607e-4 3.254928098910343e-4 3.295870054270736e-4
      3.337326996032608e-4 3.379305401927456e-4 3.421811831166603e-4 3.464852925466102e-4
      3.508435410084504e-4 3.552566094873697e-4 3.597251875342967e-4 3.642499733736424e-4
      3.688316740124002e-4 3.734710053506162e-4 3.781686922932508e-4 3.829254688634466e-4
      3.877420783172201e-4 3.926192732595982e-4 3.975578157622132e-4 4.025584774823786e-4
      4.076220397836622e-4 4.127492938579755e-4 4.179410408491991e-4 4.231980919783631e-4
      4.285212686704018e-4 4.339114026825037e-4 4.393693362340742e-4 4.448959221383352e-4
      4.504920239355782e-4 4.561585160280941e-4 4.618962838168012e-4 4.677062238395897e-4
      4.735892439114093e-4 4.795462632661147e-4 4.855782127000997e-4 4.916860347177359e-4
      4.978706836786394e-4 5.041331259467937e-4 5.104743400415442e-4 5.168953167904941e-4
      5.233970594843238e-4 5.299805840335580e-4 5.366469191273014e-4 5.433971063939749e-4
      5.502322005640726e-4 5.571532696349641e-4 5.641613950377735e-4 5.712576718063529e-4
      5.784432087483849e-4 5.857191286186357e-4 5.930865682943872e-4 6.005466789530796e-4
      6.081006262521798e-4 6.157495905113223e-4 6.234947668967346e-4 6.313373656079837e-4
      6.392786120670757e-4 6.473197471099255e-4 6.554620271802436e-4 6.637067245258565e-4
      6.720551273974975e-4 6.805085402501020e-4 6.890682839466258e-4 6.977356959644366e-4
      7.065121306042963e-4 7.153989592019721e-4 7.243975703425145e-4 7.335093700772212e-4
      7.427357821433390e-4 7.520782481865242e-4 7.615382279861032e-4 7.711171996831672e-4
      7.808166600115317e-4 7.906381245316068e-4 8.005831278672060e-4 8.106532239453323e-4
      8.208499862389878e-4 8.311750080130256e-4 8.416299025731043e-4 8.522163035177687e-4
      8.629358649937050e-4 8.737902619542037e-4 8.847811904208731e-4 8.959103677486471e-4
      9.071795328941256e-4 9.185904466872890e-4 9.301448921066349e-4 9.418446745577668e-4
      9.536916221554964e-4 9.656875860094887e-4 9.778344405135003e-4 9.901340836382630e-4
      1.002588437228037e-3 1.015199447300911e-3 1.027969084352864e-3 1.040899343665667e-3
      1.053992245618643e-3 1.067249836004362e-3 1.080674186348293e-3 1.094267394232490e-3
      1.108031583623340e-3 1.121968905203437e-3 1.136081536707638e-3 1.150371683263324e-3
      1.164841577734970e-3 1.179493481073026e-3 1.194329682667196e-3 1.209352500704167e-3
      1.224564282529820e-3 1.239967405016013e-3 1.255564274931973e-3 1.271357329320356e-3
      1.287349035878042e-3 1.303541893341717e-3 1.319938431878303e-3 1.336541213480305e-3
      1.353352832366127e-3 1.370375915385425e-3 1.387613122429553e-3 1.405067146847182e-3
      1.422740715865137e-3 1.440636591014533e-3 1.458757568562274e-3 1.477106479947968e-3
      1.495686192226351e-3 1.514499608515267e-3 1.533549668449285e-3 1.552839348639030e-3
      1.572371663136277e-3 1.592149663904904e-3 1.612176441297769e-3 1.632455124539584e-3
      1.652988882215866e-3 1.673780922768026e-3 1.694834494994702e-3 1.716152888559388e-3
      1.737739434504451e-3 1.759597505771615e-3 1.781730517728985e-3 1.804141928704709e-3
      1.826835240527347e-3 1.849813999073042e-3 1.873081794819571e-3 1.896642263407353e-3
      1.920499086207542e-3 1.944655990897237e-3 1.969116752041941e-3 1.993885191685352e-3
      2.018965179946555e-3 2.044360635624741e-3 2.070075526811528e-3 2.096113871510978e-3
      2.122479738267431e-3 2.149177246801206e-3 2.176210568652330e-3 2.203583927832340e-3
      2.231301601484298e-3 2.259367920551109e-3 2.287787270452225e-3 2.316564091768889e-3
      2.345702880937978e-3 2.375208190954581e-3 2.405084632083422e-3 2.435336872579208e-3
      2.465969639416066e-3 2.496987719026137e-3 2.528395958047465e-3 2.560199264081301e-3
      2.592402606458916e-3 2.625011017018074e-3 2.658029590889268e-3 2.691463487291839e-3
      2.725317930340126e-3 2.759598209859732e-3 2.794309682214075e-3 2.829457771141330e-3
      2.865047968601901e-3 2.901085835636554e-3 2.937577003235329e-3 2.974527173217407e-3
      3.011942119122023e-3 3.049827687110593e-3 3.088189796880199e-3 3.127034442588539e-3
      3.166367693790534e-3 3.206195696386709e-3 3.246524673583497e-3 3.287360926865641e-3
      3.328710836980797e-3 3.370580864936545e-3 3.412977553009939e-3 3.455907525769746e-3
      3.499377491111554e-3 3.543394241305889e-3 3.587964654059518e-3 3.633095693590115e-3
      3.678794411714423e-3 3.725067948950131e-3 3.771923535631571e-3 3.819368493039491e-3
      3.867410234545016e-3 3.916056266767990e-3 3.965314190749930e-3 4.015191703141668e-3
      4.065696597405993e-3 4.116836765035387e-3 4.168620196785083e-3 4.221054983921655e-3
      4.274149319487268e-3 4.327911499579875e-3 4.382349924649496e-3 4.437473100810799e-3
      4.493289641172217e-3 4.549808267181737e-3 4.607037809989661e-3 4.664987211828487e-3
      4.723665527410147e-3 4.783081925340841e-3 4.843245689553626e-3 4.904166220759064e-3
      4.965853037914098e-3 5.028315779709409e-3 5.091564206075493e-3 5.155608199707642e-3
      5.220457767610164e-3 5.286123042659977e-3 5.352614285189903e-3 5.419941884591872e-3
      5.488116360940266e-3 5.557148366635717e-3 5.627048688069562e-3 5.697828247309230e-3
      5.769498103804869e-3 5.842069456117360e-3 5.915553643668154e-3 5.989962148511058e-3
      6.065306597126334e-3 6.141598762237379e-3 6.218850564650204e-3 6.297074075116105e-3
      6.376281516217739e-3 6.456485264278920e-3 6.537697851298474e-3 6.619931966908342e-3
      6.703200460356396e-3 6.787516342514149e-3 6.872892787909723e-3 6.959343136786421e-3
      7.046880897187137e-3 7.135519747065029e-3 7.225273536420726e-3 7.316156289466418e-3
      7.408182206817180e-3 7.501365667709821e-3 7.595721232249688e-3 7.691263643685710e-3
      7.788007830714050e-3 7.885968909810769e-3 7.985162187593772e-3 8.085603163214529e-3
      8.187307530779824e-3 8.290291181804005e-3 8.394570207692075e-3 8.500160902253985e-3
      8.607079764250582e-3 8.715343499971585e-3 8.824969025845954e-3 8.935973471085157e-3
      9.048374180359598e-3 9.162188716508782e-3 9.277434863285535e-3 9.394130628134757e-3
      9.512294245007141e-3 9.631944177208222e-3 9.753099120283332e-3 9.875778004938823e-3
      1.000000000000000e-2 1.012578451540635e-2 1.025315120524429e-2 1.038211997081826e-2
      1.051271096376025e-2 1.064494458917859e-2 1.077884150884632e-2 1.091442264442952e-2
      1.105170918075648e-2 1.119072256912781e-2 1.133148453066826e-2 1.147401705972072e-2
      1.161834242728284e-2 1.176448318448691e-2 1.191246216612359e-2 1.206230249420981e-2
      1.221402758160170e-2 1.236766113565285e-2 1.252322716191865e-2 1.268074996790720e-2
      1.284025416687741e-2 1.300176468168491e-2 1.316530674867622e-2 1.333090592163204e-2
      1.349858807576004e-2 1.366837941173796e-2 1.384030645980752e-2 1.401439608391974e-2
      1.419067548593258e-2 1.436917220986126e-2 1.454991414618201e-2 1.473292953619016e-2
      1.491824697641271e-2 1.510589542307673e-2 1.529590419663380e-2 1.548830298634133e-2
      1.568312185490169e-2 1.588039124315944e-2 1.608014197485784e-2 1.628240526145511e-2
      1.648721270700128e-2 1.669459631307643e-2 1.690458848379092e-2 1.711722203084866e-2
      1.733253017867396e-2 1.755054656960299e-2 1.777130526914039e-2 1.799484077128209e-2
      1.822118800390510e-2 1.845038233422501e-2 1.868245957432222e-2 1.891745598673770e-2
      1.915540829013897e-2 1.939635366505755e-2 1.964032975969848e-2 1.988737469582292e-2
      2.013752707470477e-2 2.039082598316216e-2 2.064731099966488e-2 2.090702220051857e-2
      2.117000016612675e-2 2.143628598733160e-2 2.170592127183443e-2 2.197894815069703e-2
      2.225540928492469e-2 2.253534787213209e-2 2.281880765329304e-2 2.310583291957505e-2
      2.339646851925992e-2 2.369075986475142e-2 2.398875293967098e-2 2.429049430604289e-2
      2.459603111156951e-2 2.490541109699832e-2 2.521868260358150e-2 2.553589458062926e-2
      2.585709659315847e-2 2.618233882963702e-2 2.651167210982608e-2 2.684514789272072e-2
      2.718281828459045e-2 2.752473604712107e-2 2.787095460565852e-2 2.822152805755700e-2
      2.857651118063166e-2 2.893595944171761e-2 2.929992900533705e-2 2.966847674247468e-2
      3.004166023946432e-2 3.041953780698665e-2 3.080216848918031e-2 3.118961207286795e-2
      3.158192909689769e-2 3.197918086160274e-2 3.238142943837963e-2 3.278873767938673e-2
      3.320116922736551e-2 3.361878852558430e-2 3.404166082790818e-2 3.446985220899477e-2
      3.490342957461841e-2 3.534246067212474e-2 3.578701410101581e-2 3.623715932366941e-2
      3.669296667619246e-2 3.715450737941104e-2 3.762185354999914e-2 3.809507821174662e-2
      3.857425530696973e-2 3.905945970806455e-2 3.955076722920578e-2 4.004825463819329e-2
      4.055199966844675e-2 4.106208103115211e-2 4.157857842756011e-2 4.210157256143960e-2
      4.263114515168822e-2 4.316737894510045e-2 4.371035772929757e-2 4.426016634581938e-2
      4.481689070338064e-2 4.538061779129507e-2 4.595143569306690e-2 4.652943360015469e-2
      4.711470182590745e-2 4.770733181967603e-2 4.830741618110284e-2 4.891504867459006e-2
      4.953032424395113e-2 5.015333902724563e-2 5.078419037180081e-2 5.142297684942292e-2
      5.206979827179850e-2 5.272475570609090e-2 5.338795149073180e-2 5.405948925141166e-2
      5.473947391727205e-2 5.542801173730024e-2 5.612521029693154e-2 5.683117853485948e-2
      5.754602676005732e-2 5.826986666901480e-2 5.900281136319018e-2 5.974497536668322e-2
      6.049647464412951e-2 6.125742661881985e-2 6.202795019104872e-2 6.280816575669167e-2
      6.359819522601829e-2 6.439816204274064e-2 6.520819120330112e-2 6.602840927640434e-2
      6.685894442279272e-2 6.769992641527272e-2 6.855148665899183e-2 6.941375821197036e-2
      7.028687580589300e-2 7.117097586715997e-2 7.206619653820465e-2 7.297267769907836e-2
      7.389056098930650e-2 7.481998983002086e-2 7.576110944636849e-2 7.671406689020427e-2
      7.767901106306779e-2 7.865609273944891e-2 7.964546459034780e-2 8.064728120712875e-2
      8.166169912567646e-2 8.268887685085474e-2 8.372897488127265e-2 8.478215573436382e-2
      8.584858397177896e-2 8.692842622510002e-2 8.802185122187613e-2 8.912902981198737e-2
      9.025013499434131e-2 9.138534194390328e-2 9.253482803906889e-2 9.369877288937936e-2
      9.487735836358526e-2 9.607076861806512e-2 9.727919012559887e-2 9.850281170450581e-2
      9.974182454814727e-2 1.009964222548005e-1 1.022668008579101e-1 1.035531588567169e-1
      1.048556972472757e-1 1.061746195538601e-1 1.075101318607635e-1 1.088624428445015e-1
      1.102317638064160e-1 1.116183087056936e-1 1.130222941927959e-1 1.144439396433112e-1
      1.158834671922340e-1 1.173411017686721e-1 1.188170711309940e-1 1.203116059024154e-1
      1.218249396070347e-1 1.233573087063227e-1 1.249089526360681e-1 1.264801138437922e-1
      1.280710378266304e-1 1.296819731696913e-1 1.313131715849003e-1 1.329648879503279e-1
      1.346373803500171e-1 1.363309101143076e-1 1.380457418606710e-1 1.397821435350565e-1
      1.415403864537581e-1 1.433207453458095e-1 1.451234983959092e-1 1.469489272878894e-1
      1.487973172487285e-1 1.506689570931179e-1 1.525641392685918e-1 1.544831599012203e-1
      1.564263188418817e-1 1.583939197131143e-1 1.603862699565568e-1 1.624036808809886e-1
      1.644464677109706e-1 1.665149496361015e-1 1.686094498608905e-1 1.707302956552586e-1
      1.728778184056766e-1 1.750523536669429e-1 1.772542412146164e-1 1.794838250981066e-1
      1.817414536944307e-1 1.840274797626507e-1 1.863422604989902e-1 1.886861575926488e-1
      1.910595372823167e-1 1.934627704133982e-1 1.958962324959602e-1 1.983603037634033e-1
      2.008553692318767e-1 2.033818187604362e-1 2.059400471119603e-1 2.085304540148344e-1
      2.111534442254063e-1 2.138094275912334e-1 2.164988191151207e-1 2.192220390199648e-1
      2.219795128144166e-1 2.247716713593663e-1 2.275989509352673e-1 2.304617933103060e-1
      2.333606458094272e-1 2.362959613842325e-1 2.392681986837515e-1 2.422778221261098e-1
      2.453253019710937e-1 2.484111143936285e-1 2.515357415581840e-1 2.546996716941110e-1
      2.579033991719306e-1 2.611474245805799e-1 2.644322548056280e-1 2.677584031084816e-1
      2.711263892065791e-1 2.745367393546010e-1 2.779899864266969e-1 2.814866699997465e-1
      2.850273364376732e-1 2.886125389768103e-1 2.922428378123494e-1 2.959188001858698e-1
      2.996410004739703e-1 3.034100202780196e-1 3.072264485150293e-1 3.110908815096766e-1
      3.150039230874797e-1 3.189661846691450e-1 3.229782853661072e-1 3.270408520772618e-1
      3.311545195869231e-1 3.353199306640096e-1 3.395377361624755e-1 3.438085951230123e-1
      3.481331748760205e-1 3.525121511458854e-1 3.569462081565591e-1 3.614360387384694e-1
      3.659823444367804e-1 3.705858356210059e-1 3.752472315960100e-1 3.799672607143980e-1
      3.847466604903214e-1 3.895861777147202e-1 3.944865685720055e-1 3.994485987582193e-1
      4.044730436006743e-1 4.095606881790980e-1 4.147123274483081e-1 4.199287663624201e-1
      4.252108200006278e-1 4.305593136945596e-1 4.359750831572351e-1 4.414589746136529e-1
      4.470118449330085e-1 4.526345617625877e-1 4.583280036633352e-1 4.640930602471298e-1
      4.699306323157934e-1 4.758416320018370e-1 4.818269829109882e-1 4.878876202665047e-1
      4.940244910553019e-1 5.002385541759281e-1 5.065307805883866e-1 5.129021534658570e-1
      5.193536683483149e-1 5.258863332980845e-1 5.325011690573569e-1 5.391992092076756e-1
      5.459815003314423e-1 5.528491021754448e-1 5.598030878164415e-1 5.668445438288387e-1
      5.739745704544625e-1 5.811942817744798e-1 5.885048058834745e-1 5.959072850657099e-1
      6.034028759736206e-1 6.109927498085337e-1 6.186780925036789e-1 6.264601049094892e-1
      6.343400029812334e-1 6.423190179690195e-1 6.503983966101701e-1 6.585794013240371e-1
      6.668633104092521e-1 6.752514182434615e-1 6.837450354855822e-1 6.923454892805864e-1
      7.010541234668786e-1 7.098722987862693e-1 7.188013930965908e-1 7.278428015869975e-1
      7.369979369959584e-1 7.462682298320091e-1 7.556551285972668e-1 7.651601000137589e-1
      7.747846292526097e-1 7.845302201660916e-1 7.943983955226134e-1 8.043906972446532e-1
      8.145086866496815e-1 8.247539446941312e-1 8.351280722204127e-1 8.456326902070600e-1
      8.562694400220066e-1 8.670399836790491e-1 8.779460040975492e-1 8.889892053653833e-1
      9.001713130052181e-1 9.114940742441245e-1 9.229592582865788e-1 9.345686565909174e-1
      9.463240831492413e-1 9.582273747708687e-1 9.702803913693344e-1 9.824850162530007e-1
      9.948431564193395e-1 1.007356742852891e0 1.020027730826997e0 1.032858100209308e0
      1.045849855771142e0 1.059005027500740e0 1.072325670920446e0 1.085813867407896e0
      1.099471724521236e0 1.113301376328423e0 1.127304983740693e0 1.141484734850190e0
      1.155842845271877e0 1.170381558489719e0 1.185103146207233e0 1.200009908702456e0
      1.215104175187350e0 1.230388304171765e0 1.245864683831954e0 1.261535732383722e0
      1.277403898460290e0 1.293471661494890e0 1.309741532108186e0 1.326216052500567e0
      1.342897796849355e0 1.359789371711051e0 1.376893416428587e0 1.394212603543752e0
      1.411749639214770e0 1.429507263639140e0 1.447488251481811e0 1.465695412308712e0
      1.484131591025766e0 1.502799668323410e0 1.521702561126696e0 1.540843223051089e0
      1.560224644863951e0 1.579849854951875e0 1.599721919793867e0 1.619843944440484e0
      1.640219072999020e0 1.660850489124761e0 1.681741416518455e0 1.702895119430011e0
      1.724314903168543e0 1.746004114618844e0 1.767966142764324e0 1.790204419216567e0
      1.812722418751514e0 1.835523659852400e0 1.858611705259543e0 1.881990162527005e0
      1.905662684586300e0 1.929632970317166e0 1.953904765125509e0 1.978481861528658e0
      2.003368099747918e0 2.028567368308649e0 2.054083604647833e0 2.079920795729306e0
      2.106082978666747e0 2.132574241354460e0 2.159398723106141e0 2.186560615301642e0
      2.214064162041872e0 2.241913660811973e0 2.270113463152781e0 2.298667975340789e0
      2.327581659076623e0 2.356859032182186e0 2.386504669306599e0 2.416523202640968e0
      2.446919322642204e0 2.477697778765903e0 2.508863380208446e0 2.540420996658473e0
      2.572375559057750e0 2.604732060371668e0 2.637495556369393e0 2.670671166413821e0
      2.704264074261530e0 2.738279528872706e0 2.772722845231340e0 2.807599405175695e0
      2.842914658239209e0 2.878674122502034e0 2.914883385453202e0 2.951548104863723e0
      2.988674009670606e0 3.026266900871998e0 3.064332652433646e0 3.102877212206664e0
      3.141906602856942e0 3.181426922806180e0 3.221444347184765e0 3.261965128796683e0
      3.302995599096489e0 3.344542169178650e0 3.386611330779276e0 3.429209657290444e0
      3.472343804787351e0 3.516020513068288e0 3.560246606707791e0 3.605028996122977e0
      3.650374678653289e0 3.696290739653892e0 3.742784353602722e0 3.789862785221556e0
      3.837533390611122e0 3.885803618400488e0 3.934681010910964e0 3.984173205334559e0
      4.034287934927351e0 4.085033030217805e0 4.136416420230288e0 4.188446133724043e0
      4.241130300447645e0 4.294477152409339e0 4.348495025163286e0 4.403192359111989e0
      4.458577700825176e0 4.514659704375156e0 4.571447132689090e0 4.628948858918196e0
      4.687173867824170e0 4.746131257183129e0 4.805830239207094e0 4.866280141983472e0
      4.927490410932568e0 4.989470610283420e0 5.052230424568295e0 5.115779660135842e0
      5.180128246683420e0 5.245286238808604e0 5.311263817580211e0 5.378071292129174e0
      5.445719101259295e0 5.514217815078387e0 5.583578136649860e0 5.653810903665052e0
      5.724927090136719e0 5.796937808113665e0 5.869854309417089e0 5.943687987398683e0
      6.018450378720822e0 6.094153165159281e0 6.170808175428436e0 6.248427387029609e0
      6.327022928122541e0 6.406607079420408e0 6.487192276108789e0 6.568791109788598e0
      6.651416330443618e0 6.735080848432695e0 6.819797736506955e0 6.905580231852543e0
      6.992441738158858e0 7.080395827712993e0 7.169456243520399e0 7.259636901452214e0
      7.350951892419739e0 7.443415484576070e0 7.537042125545613e0 7.631846444681517e0
      7.727843255351499e0 7.825047557252566e0 7.923474538754621e0 8.023139579273790e0
      8.124058251675439e0 8.226246324707425e0 8.329719765464088e0 8.434494741881036e0
      8.540587625261516e0 8.648014992834417e0 8.756793630344459e0 8.866940534675091e0
      8.978472916504183e0 9.091408202993323e0 9.205764040510809e0 9.321558297388883e0
      9.438809066715798e0 9.557534669162775e0 9.677753655846766e0 9.799484811229043e0
      9.922747156050262e0 1.004755995030262e1 1.017394269623911e1 1.030191514142094e1
      1.043149728180304e1 1.056270936485845e1 1.069557189274214e1 1.083010562549436e1
      1.096633158428459e1 1.110427105469605e1 1.124394559005161e1 1.138537701478161e1
      1.152858742783389e1 1.167359920612685e1 1.182043500804592e1 1.196911777698384e1
      1.211967074492579e1 1.227211743607927e1 1.242648167054996e1 1.258278756806357e1
      1.274105955173454e1 1.290132235188238e1 1.306360100989563e1 1.322792088214477e1
      1.339430764394419e1 1.356278729356388e1 1.373338615629192e1 1.390613088854765e1
      1.408104848204696e1 1.425816626801972e1 1.443751192148031e1 1.461911346555199e1
      1.480299927584547e1 1.498919808489272e1 1.517773898663653e1 1.536865144097632e1
      1.556196527837156e1 1.575771070450258e1 1.595591830499049e1 1.615661905017616e1
      1.635984429995927e1 1.656562580869865e1 1.677399573017364e1 1.698498662260842e1
      1.719863145375924e1 1.741496360606557e1 1.763401688186640e1 1.785582550868167e1
      1.808042414456063e1 1.830784788349712e1 1.853813226091298e1 1.877131325921077e1
      1.900742731339581e1 1.924651131676947e1 1.948860262669375e1 1.973373907042828e1
      1.998195895104121e1 2.023330105339381e1 2.048780465020098e1 2.074550950816753e1
      2.100645589420178e1 2.127068458170749e1 2.153823685695460e1 2.180915452553049e1
      2.208347991887211e1 2.236125590088020e1 2.264252587461717e1 2.292733378908859e1
      2.321572414611057e1 2.350774200726318e1 2.380343300093126e1 2.410284332943424e1
      2.440601977624501e1 2.471300971330026e1 2.502386110840225e1 2.533862253271384e1
      2.565734316834804e1 2.598007281605251e1 2.630686190299136e1 2.663776149062432e1
      2.697282328268510e1 2.731209963326048e1 2.765564355497041e1 2.800350872725163e1
      2.835574950474513e1 2.871242092578892e1 2.907357872101828e1 2.943927932207341e1
      2.980957987041728e1 3.018453822626403e1 3.056421297761950e1 3.094866344943615e1
      3.133794971288226e1 3.173213259472856e1 3.213127368685238e1 3.253543535586128e1