<?xml version="1.0" encoding="UTF-8"?>
<UPF version="2.0.1">
  <PP_INFO><![CDATA[
Generated using "atomic" code by A. Dal Corso  v.6.3MaX
Author: ADC
Generation date: 23Nov2022
Pseudopotential type: PAW
Element: Ar
Functional:  SLA  PW   PSX  PSC
    Suggested minimum cutoff for wavefunctions:  48. Ry
    Suggested minimum cutoff for charge density: 225. Ry
    The Pseudo was generated with a Scalar-Relativistic Calculation
    Local Potential by smoothing AE potential with Bessel fncs, cutoff radius:   1.8000
    Pseudopotential contains additional information for GIPAW reconstruction.
    Valence configuration:
    nl pn  l   occ       Rcut    Rcut US       E pseu
    3S  1  0  2.00      1.200      1.500    -1.778728
    3P  2  1  6.00      1.200      1.500    -0.752120
    Generation configuration:
    3S  1  0  2.00      1.200      1.500    -1.778724
    3S  1  0  0.00      1.200      1.500     5.000000
    3P  2  1  6.00      1.200      1.500    -0.752115
    3P  2  1  0.00      1.200      1.500     2.500000
    3D  3  2  0.00      1.400      1.500     0.100000
    3D  3  2  0.00      1.400      1.500     0.300000
    Pseudization used: troullier-martins
]]>
    <PP_INPUTFILE><![CDATA[
 &input
   title='Ar',
   zed=18.,
   rel=1,
   config='[Ne] 3s2 3p6 3d-1',
   iswitch=3,
   dft='PBESOL'
 /
 &inputp
   lpaw=.true.,
   pseudotype=3,
   file_pseudopw='Ar.paw.z_8.ld1.psl.v1.0.0-high.upf',
   author='ADC',
   lloc=-1,
   rcloc=1.8,
   which_augfun='PSQ',
   rmatch_augfun_nc=.true.,
   nlcc=.true.,
   new_core_ps=.true.,
   rcore=1.2,
   tm=.true.
 /
6
3S  1  0  2.00  0.00  1.20  1.50  0.0
3S  1  0  0.00  5.00  1.20  1.50  0.0
3P  2  1  6.00  0.00  1.20  1.50  0.0
3P  2  1  0.00  2.50  1.20  1.50  0.0
3D  3  2  0.00  0.10  1.40  1.50  0.0
3D  3  2  0.00  0.30  1.40  1.50  0.0
]]></PP_INPUTFILE>
  </PP_INFO>
  <!--
 END OF HUMAN READABLE SECTION 
-->
  <PP_HEADER generated="Generated using &quot;atomic&quot; code by A. Dal Corso  v.6.3MaX" author="ADC" date="23Nov2022" comment="" element="Ar" pseudo_type="PAW" relativistic="scalar" is_ultrasoft="true" is_paw="true" is_coulomb="false" has_so="false" has_wfc="true" has_gipaw="true" paw_as_gipaw="true" core_correction="true" functional=" SLA  PW   PSX  PSC" z_valence="8.000000000000e0" total_psenergy="-9.355291752930e1" wfc_cutoff="4.758627273971e1" rho_cutoff="2.247923098595e2" l_max="2" l_max_rho="4" l_local="-1" mesh_size="1161" number_of_wfc="2" number_of_proj="6"/>
  <PP_MESH dx="1.250000000000e-2" mesh="1161" xmin="-7.000000000000e0" rmax="1.000000000000e2" zmesh="1.800000000000e1">
    <PP_R>
      5.066010919747312e-5 5.129733492605679e-5 5.194257596758790e-5 5.259593314229188e-5
      5.325750853855665e-5 5.392740552888384e-5 5.460572878604104e-5 5.529258429941729e-5
      5.598807939158391e-5 5.669232273506415e-5 5.740542436931317e-5 5.812749571791214e-5
      5.885864960597834e-5 5.959900027779428e-5 6.034866341465878e-5 6.110775615296212e-5
      6.187639710248907e-5 6.265470636495180e-5 6.344280555275599e-5 6.424081780800321e-5
      6.504886782173190e-5 6.586708185340072e-5 6.669558775061670e-5 6.753451496911191e-5
      6.838399459297118e-5 6.924415935511385e-5 7.011514365803412e-5 7.099708359480137e-5
      7.189011697032488e-5 7.279438332288667e-5 7.371002394594397e-5 7.463718191020705e-5
      7.557600208599411e-5 7.652663116586761e-5 7.748921768755550e-5 7.846391205716008e-5
      7.945086657265968e-5 8.045023544770531e-5 8.146217483571682e-5 8.248684285428260e-5
      8.352439960986512e-5 8.457500722281841e-5 8.563882985271945e-5 8.671603372401846e-5
      8.780678715201205e-5 8.891126056914247e-5 9.002962655162817e-5 9.116205984642923e-5
      9.230873739855189e-5 9.346983837869672e-5 9.464554421125410e-5 9.583603860265235e-5
      9.704150757006220e-5 9.826213947046226e-5 9.949812503007054e-5 1.007496573741453e-4
      1.020169320571615e-4 1.033001470933667e-4 1.045995029877210e-4 1.059152027672265e-4
      1.072474520126505e-4 1.085964588906482e-4 1.099624341862887e-4 1.113455913359911e-4
      1.127461464608741e-4 1.141643184005255e-4 1.156003287471961e-4 1.170544018804241e-4
      1.185267650020949e-4 1.200176481719419e-4 1.215272843434936e-4 1.230559094004732e-4
      1.246037621936558e-4 1.261710845781893e-4 1.277581214513853e-4 1.293651207909841e-4
      1.309923336939018e-4 1.326400144154652e-4 1.343084204091391e-4 1.359978123667546e-4
      1.377084542592421e-4 1.394406133778777e-4 1.411945603760477e-4 1.429705693115389e-4
      1.447689176893610e-4 1.465898865051068e-4 1.484337602888584e-4 1.503008271496459e-4
      1.521913788204649e-4 1.541057107038605e-4 1.560441219180840e-4 1.580069153438315e-4
      1.599943976715691e-4 1.620068794494538e-4 1.640446751318581e-4 1.661081031285033e-4
      1.681974858542119e-4 1.703131497792857e-4 1.724554254805172e-4 1.746246476928434e-4
      1.768211553616482e-4 1.790452916957237e-4 1.812974042208971e-4 1.835778448343323e-4
      1.858869698595151e-4 1.882251401019284e-4 1.905927209054297e-4 1.929900822093363e-4
      1.954175986062294e-4 1.978756494004850e-4 2.003646186675406e-4 2.028848953139080e-4
      2.054368731379407e-4 2.080209508913656e-4 2.106375323415893e-4 2.132870263347868e-4
      2.159698468597850e-4 2.186864131127491e-4 2.214371495626828e-4 2.242224860177533e-4
      2.270428576924481e-4 2.298987052755798e-4 2.327904749991433e-4 2.357186187080411e-4
      2.386835939306855e-4 2.416858639504872e-4 2.447258978782448e-4 2.478041707254445e-4
      2.509211634784814e-4 2.540773631738151e-4 2.572732629740692e-4 2.605093622450895e-4
      2.637861666339709e-4 2.671041881480658e-4 2.704639452349868e-4 2.738659628636140e-4
      2.773107726061232e-4 2.807989127210453e-4 2.843309282373696e-4 2.879073710397070e-4
      2.915287999545214e-4 2.951957808374486e-4 2.989088866617122e-4 3.026686976076514e-4
      3.064758011533761e-4 3.103307921665611e-4 3.142342729973949e-4 3.181868535726991e-4
      3.221891514912301e-4 3.262417921201807e-4 3.303454086928941e-4 3.345006424078089e-4
      3.387081425286465e-4 3.429685664858612e-4 3.472825799793645e-4 3.516508570825415e-4
      3.560740803475768e-4 3.605529409121049e-4 3.650881386072007e-4 3.696803820667319e-4
      3.743303888380816e-4 3.790388854942682e-4 3.838066077474740e-4 3.886343005640006e-4
      3.935227182806736e-4 3.984726247227055e-4 4.034847933230495e-4 4.085600072432465e-4
      4.136990594957965e-4 4.189027530680709e-4 4.241719010477756e-4 4.295073267500039e-4
      4.349098638458764e-4 4.403803564928053e-4 4.459196594663978e-4 4.515286382940118e-4
      4.572081693900016e-4 4.629591401926561e-4 4.687824493028629e-4 4.746790066245192e-4
      4.806497335067020e-4 4.866955628876349e-4 4.928174394404588e-4 4.990163197208398e-4
      5.052931723164345e-4 5.116489779982301e-4 5.180847298737959e-4 5.246014335424563e-4
      5.312001072524169e-4 5.378817820598718e-4 5.446475019901015e-4 5.514983242006117e-4
      5.584353191463103e-4 5.654595707467704e-4 5.725721765555972e-4 5.797742479319169e-4
      5.870669102140363e-4 5.944513028952737e-4 6.019285798020084e-4 6.094999092739716e-4
      6.171664743467947e-4 6.249294729368703e-4 6.327901180285210e-4 6.407496378635345e-4
      6.488092761330806e-4 6.569702921720343e-4 6.652339611557567e-4 6.736015742993389e-4
      6.820744390593575e-4 6.906538793381718e-4 6.993412356907777e-4 7.081378655342816e-4
      7.170451433599929e-4 7.260644609481934e-4 7.351972275856077e-4 7.444448702856016e-4
      7.538088340111631e-4 7.632905819006746e-4 7.728915954965344e-4 7.826133749766520e-4
      7.924574393888475e-4 8.024253268882154e-4 8.125185949774568e-4 8.227388207502445e-4
      8.330876011376510e-4 8.435665531576637e-4 8.541773141678576e-4 8.649215421212272e-4
      8.758009158252491e-4 8.868171352042014e-4 8.979719215647709e-4 9.092670178650238e-4
      9.207041889867362e-4 9.322852220111644e-4 9.440119264982824e-4 9.558861347695213e-4
      9.679097021940841e-4 9.800845074788425e-4 9.924124529618910e-4 1.004895464909795e-3
      1.017535493818565e-3 1.030334514718438e-3 1.043294527482467e-3 1.056417557139014e-3
      1.069705654188163e-3 1.083160894922111e-3 1.096785381749599e-3 1.110581243524413e-3
      1.124550635878022e-3 1.138695741556403e-3 1.153018770761097e-3 1.167521961494557e-3
      1.182207579909843e-3 1.197077920664710e-3 1.212135307280154e-3 1.227382092503469e-3
      1.242820658675867e-3 1.258453418104721e-3 1.274282813440496e-3 1.290311318058421e-3
      1.306541436444950e-3 1.322975704589104e-3 1.339616690378715e-3 1.356466994001669e-3
      1.373529248352189e-3 1.390806119442231e-3 1.408300306818052e-3 1.426014543982024e-3
      1.443951598819742e-3 1.462114274032517e-3 1.480505407575305e-3 1.499127873100138e-3
      1.517984580405143e-3 1.537078475889199e-3 1.556412543012323e-3 1.575989802761839e-3
      1.595813314124413e-3 1.615886174564027e-3 1.636211520505960e-3 1.656792527826873e-3
      1.677632412351028e-3 1.698734430352783e-3 1.720101879065383e-3 1.741738097196160e-3
      1.763646465448220e-3 1.785830407048671e-3 1.808293388283524e-3 1.831038919039298e-3
      1.854070553351449e-3 1.877391889959698e-3 1.901006572870335e-3 1.924918291925612e-3
      1.949130783380280e-3 1.973647830485387e-3 1.998473264079426e-3 2.023610963186902e-3
      2.049064855624446e-3 2.074838918614534e-3 2.100937179406949e-3 2.127363715908037e-3
      2.154122657317889e-3 2.181218184775546e-3 2.208654532012296e-3 2.236435986013214e-3
      2.264566887687013e-3 2.293051632544308e-3 2.321894671384440e-3 2.351100510990906e-3
      2.380673714835566e-3 2.410618903791688e-3 2.440940756855968e-3 2.471644011879640e-3
      2.502733466308768e-3 2.534213977933856e-3 2.566090465648896e-3 2.598367910219944e-3
      2.631051355063385e-3 2.664145907033971e-3 2.697656737222776e-3 2.731589081765199e-3
      2.765948242659108e-3 2.800739588593299e-3 2.835968555786356e-3 2.871640648836078e-3
      2.907761441579577e-3 2.944336577964211e-3 2.981371772929452e-3 3.018872813299860e-3
      3.056845558689292e-3 3.095295942416466e-3 3.134229972432076e-3 3.173653732257517e-3
      3.213573381935472e-3 3.253995158992420e-3 3.294925379413263e-3 3.336370438628220e-3
      3.378336812512109e-3 3.420831058396235e-3 3.463859816092970e-3 3.507429808933243e-3
      3.551547844817087e-3 3.596220817277364e-3 3.641455706556909e-3 3.687259580699203e-3
      3.733639596652765e-3 3.780603001389455e-3 3.828157133036810e-3 3.876309422024648e-3
      3.925067392246090e-3 3.974438662233179e-3 4.024430946347302e-3 4.075052055984563e-3
      4.126309900796327e-3 4.178212489925135e-3 4.230767933256129e-3 4.283984442684262e-3
      4.337870333397397e-3 4.392434025175595e-3 4.447684043706699e-3 4.503629021918513e-3
      4.560277701327712e-3 4.617638933405698e-3 4.675721680961689e-3 4.734535019543160e-3
      4.794088138853916e-3 4.854390344190021e-3 4.915451057893740e-3 4.977279820825817e-3
      5.039886293856252e-3 5.103280259373827e-3 5.167471622814639e-3 5.232470414209816e-3
      5.298286789752758e-3 5.364931033386048e-3 5.432413558408335e-3 5.500744909101462e-3
      5.569935762377986e-3 5.639996929449504e-3 5.710939357515914e-3 5.782774131475925e-3
      5.855512475659129e-3 5.929165755579789e-3 6.003745479712740e-3 6.079263301291611e-3
      6.155731020129664e-3 6.233160584463540e-3 6.311564092820210e-3 6.390953795907357e-3
      6.471342098527612e-3 6.552741561516808e-3 6.635164903706646e-3 6.718625003912039e-3
      6.803134902943442e-3 6.888707805644517e-3 6.975357082955407e-3 7.063096274001977e-3
      7.151939088211346e-3 7.241899407453984e-3 7.332991288212794e-3 7.425228963779473e-3
      7.518626846478483e-3 7.613199529919026e-3 7.708961791275294e-3 7.805928593595455e-3
      7.904115088139649e-3 8.003536616747404e-3 8.104208714234856e-3 8.206147110822048e-3
      8.309367734590840e-3 8.413886713973703e-3 8.519720380273805e-3 8.626885270216833e-3
      8.735398128534870e-3 8.845275910582796e-3 8.956535784987604e-3 9.069195136331023e-3
      9.183271567865921e-3 9.298782904266808e-3 9.415747194415012e-3 9.534182714218826e-3
      9.654107969469173e-3 9.775541698731194e-3 9.898502876272140e-3 1.002301071502616e-2
      1.014908466959638e-2 1.027674443929468e-2 1.040600997121984e-2 1.053690146337418e-2
      1.066943936781968e-2 1.080364439387354e-2 1.093953751134411e-2 1.107713995380751e-2
      1.121647322192530e-2 1.135755908680412e-2 1.150041959339738e-2 1.164507706394988e-2
      1.179155410148573e-2 1.193987359334004e-2 1.209005871473517e-2 1.224213293240189e-2
      1.239612000824610e-2 1.255204400306172e-2 1.270992928029014e-2 1.286980050982716e-2
      1.303168267187766e-2 1.319560106085879e-2 1.336158128935234e-2 1.352964929210671e-2
      1.369983133008925e-2 1.387215399458965e-2 1.404664421137480e-2 1.422332924489611e-2
      1.440223670254953e-2 1.458339453898930e-2 1.476683106049593e-2 1.495257492939910e-2
      1.514065516855626e-2 1.533110116588740e-2 1.552394267896708e-2 1.571920983967406e-2
      1.591693315889945e-2 1.611714353131419e-2 1.631987224019628e-2 1.652515096231893e-2
      1.673301177290013e-2 1.694348715061440e-2 1.715660998266777e-2 1.737241356993633e-2
      1.759093163216963e-2 1.781219831325949e-2 1.803624818657499e-2 1.826311626036468e-2
      1.849283798322665e-2 1.872544924964747e-2 1.896098640561077e-2 1.919948625427636e-2
      1.944098606173086e-2 1.968552356281049e-2 1.993313696699732e-2 2.018386496438953e-2
      2.043774673174680e-2 2.069482193861183e-2 2.095513075350873e-2 2.121871385021939e-2
      2.148561241413897e-2 2.175586814871106e-2 2.202952328194405e-2 2.230662057300926e-2
      2.258720331892218e-2 2.287131536130771e-2 2.315900109325046e-2 2.345030546623142e-2
      2.374527399715149e-2 2.404395277544375e-2 2.434638847027498e-2 2.465262833783777e-2
      2.496272022873454e-2 2.527671259545410e-2 2.559465449994256e-2 2.591659562126937e-2
      2.624258626338971e-2 2.657267736300468e-2 2.690692049752015e-2 2.724536789310591e-2
      2.758807243285610e-2 2.793508766505227e-2 2.828646781153052e-2 2.864226777615357e-2
      2.900254315338980e-2 2.936735023699987e-2 2.973674602883279e-2 3.011078824773262e-2
      3.048953533855703e-2 3.087304648130954e-2 3.126138160038645e-2 3.165460137394017e-2
      3.205276724336037e-2 3.245594142287422e-2 3.286418690926753e-2 3.327756749172810e-2
      3.369614776181296e-2 3.411999312354100e-2 3.454916980361225e-2 3.498374486175613e-2
      3.542378620120965e-2 3.586936257932734e-2 3.632054361832485e-2 3.677739981615746e-2
      3.724000255753554e-2 3.770842412507860e-2 3.818273771060957e-2 3.866301742659123e-2
      3.914933831770631e-2 3.964177637258349e-2 4.014040853567070e-2 4.064531271925787e-2
      4.115656781565099e-2 4.167425370949901e-2 4.219845129027605e-2 4.272924246492061e-2
      4.326671017063361e-2 4.381093838783760e-2 4.436201215329874e-2 4.492001757341405e-2
      4.548504183766569e-2 4.605717323224447e-2 4.663650115384486e-2 4.722311612363325e-2
      4.781710980139212e-2 4.841857499984214e-2 4.902760569914419e-2 4.964429706158421e-2
      5.026874544644221e-2 5.090104842504878e-2 5.154130479603075e-2 5.218961460074865e-2
      5.284607913892856e-2 5.351080098449011e-2 5.418388400157406e-2 5.486543336077123e-2
      5.555555555555555e-2 5.625435841892415e-2 5.696195114024607e-2 5.767844428232364e-2
      5.840394979866804e-2 5.913858105099219e-2 5.988245282692398e-2 6.063568135794178e-2
      6.139838433753600e-2 6.217068093959897e-2 6.295269183704590e-2 6.374453922067069e-2
      6.454634681823796e-2 6.535823991381617e-2 6.618034536735328e-2 6.701279163449892e-2
      6.785570878667611e-2 6.870922853140473e-2 6.957348423288140e-2 7.044861093281779e-2
      7.133474537154118e-2 7.223202600936062e-2 7.314059304820121e-2 7.406058845351131e-2
      7.499215597644467e-2 7.593544117632201e-2 7.689059144337509e-2 7.785775602177631e-2
      7.883708603295878e-2 7.982873449922918e-2 8.083285636767783e-2 8.184960853438977e-2
      8.287914986895949e-2 8.392164123931519e-2 8.497724553685442e-2 8.604612770189629e-2
      8.712845474945384e-2 8.822439579533022e-2 8.933412208254355e-2 9.045780700808395e-2
      9.159562615000711e-2 9.274775729486906e-2 9.391438046550510e-2 9.509567794915919e-2
      9.629183432596646e-2 9.750303649779436e-2 9.872947371744660e-2 9.997133761823385e-2
      1.012288222439172e-1 1.025021240790278e-1 1.037914420795679e-1 1.050969777040983e-1
      1.064189349452165e-1 1.077575203614308e-1 1.091129431094360e-1 1.104854149767940e-1
      1.118751504150265e-1 1.132823665731231e-1 1.147072833314715e-1 1.161501233362143e-1
      1.176111120340375e-1 1.190904777073978e-1 1.205884515101913e-1 1.221052675038724e-1
      1.236411626940261e-1 1.251963770674005e-1 1.267711536294058e-1 1.283657384420836e-1
      1.299803806625551e-1 1.316153325819523e-1 1.332708496648388e-1 1.349471905891272e-1
      1.366446172864973e-1 1.383633949833240e-1 1.401037922421194e-1 1.418660810034959e-1
      1.436505366286581e-1 1.454574379424279e-1 1.472870672768115e-1 1.491397105151151e-1
      1.510156571366136e-1 1.529152002617837e-1 1.548386366981028e-1 1.567862669864278e-1
      1.587583954479537e-1 1.607553302317645e-1 1.627773833629836e-1 1.648248707915260e-1
      1.668981124414685e-1 1.689974322610370e-1 1.711231582732240e-1 1.732756226270442e-1
      1.754551616494316e-1 1.776621158977930e-1 1.798968302132202e-1 1.821596537743707e-1
      1.844509401520306e-1 1.867710473643572e-1 1.891203379328232e-1 1.914991789388598e-1
      1.939079420812134e-1 1.963470037340263e-1 1.988167450056434e-1 2.013175517981634e-1
      2.038498148677359e-1 2.064139298856169e-1 2.090102974999953e-1 2.116393233985923e-1
      2.143014183720541e-1 2.169969983781364e-1 2.197264846066988e-1 2.224903035455183e-1
      2.252888870469265e-1 2.281226723952895e-1 2.309921023753339e-1 2.338976253413311e-1
      2.368396952871568e-1 2.398187719172247e-1 2.428353207183198e-1 2.458898130323299e-1
      2.489827261298925e-1 2.521145432849726e-1 2.552857538503717e-1 2.584968533341927e-1
      2.617483434772636e-1 2.650407323315335e-1 2.683745343394602e-1 2.717502704143893e-1
      2.751684680219507e-1 2.786296612624757e-1 2.821343909544490e-1 2.856832047190162e-1
      2.892766570655472e-1 2.929153094782828e-1 2.965997305040655e-1 3.003304958411759e-1
      3.041081884292892e-1 3.079333985405569e-1 3.118067238718419e-1 3.157287696381082e-1
      3.197001486669850e-1 3.237214814945266e-1 3.277933964621677e-1 3.319165298149068e-1
      3.360915258007195e-1 3.403190367712214e-1 3.445997232836040e-1 3.489342542038425e-1
      3.533233068112127e-1 3.577675669041147e-1 3.622677289072285e-1 3.668244959800242e-1
      3.714385801266262e-1 3.761107023070707e-1 3.808415925499546e-1 3.856319900665019e-1
      3.904826433660722e-1 3.953943103731110e-1 4.003677585455813e-1 4.054037649948798e-1
      4.105031166072584e-1 4.156666101667826e-1 4.208950524798249e-1 4.261892605011349e-1
      4.315500614614876e-1 4.369782929969384e-1 4.424748032797100e-1 4.480404511507153e-1
      4.536761062537582e-1 4.593826491714152e-1 4.651609715626258e-1 4.710119763020212e-1
      4.769365776209942e-1 4.829357012505556e-1 4.890102845659785e-1 4.951612767332632e-1
      5.013896388574517e-1 5.076963441327960e-1 5.140823779948271e-1 5.205487382743298e-1
      5.270964353532515e-1 5.337264923225840e-1 5.404399451422160e-1 5.472378428028101e-1
      5.541212474897071e-1 5.610912347488918e-1 5.681488936550561e-1 5.752953269817609e-1
      5.825316513737540e-1 5.898589975214450e-1 5.972785103375752e-1 6.047913491361193e-1
      6.123986878134224e-1 6.201017150316313e-1 6.279016344044216e-1 6.357996646850623e-1
      6.437970399568557e-1 6.518950098259563e-1 6.600948396166331e-1 6.683978105689744e-1
      6.768052200390819e-1 6.853183817017926e-1 6.939386257559340e-1 7.026672991321790e-1
      7.115057657035023e-1 7.204554064982852e-1 7.295176199161127e-1 7.386938219462660e-1
      7.479854463889839e-1 7.573939450794869e-1 7.669207881148385e-1 7.765674640836471e-1
      7.863354802986560e-1 7.962263630322749e-1 8.062416577550515e-1 8.163829293771634e-1
      8.266517624929360e-1 8.370497616284329e-1 8.475785514921766e-1 8.582397772290015e-1
      8.690351046771207e-1 8.799662206284129e-1 8.910348330919820e-1 9.022426715610477e-1
      9.135914872831702e-1 9.250830535338968e-1 9.367191658938360e-1 9.485016425292145e-1
      9.604323244759813e-1 9.725130759274606e-1 9.847457845256468e-1 9.971323616561476e-1
      1.009674742746837e0 1.022374887570282e0 1.035234780549945e0 1.048256431070271e0
      1.061441873790648e0 1.074793168963323e0 1.088312402755334e0 1.102001687574463e0
      1.115863162399315e0 1.129898993113535e0 1.144111372844224e0 1.158502522304635e0
      1.173074690141146e0 1.187830153284630e0 1.202771217306226e0 1.217900216777582e0
      1.233219515635648e0 1.248731507552035e0 1.264438616307040e0 1.280343296168367e0
      1.296448032274596e0 1.312755341023514e0 1.329267770465286e0 1.345987900700610e0
      1.362918344283854e0 1.380061746631269e0 1.397420786434355e0 1.414998176078394e0
      1.432796662066281e0 1.450819025447666e0 1.469068082253489e0 1.487546683936009e0
      1.506257717814328e0 1.525204107525561e0 1.544388813481650e0 1.563814833331925e0
      1.583485202431518e0 1.603402994315613e0 1.623571321179719e0 1.643993334365943e0
      1.664672224855390e0 1.685611223766776e0 1.706813602861274e0 1.728282675053759e0
      1.750021794930443e0 1.772034359273028e0 1.794323807589485e0 1.816893622651454e0
      1.839747331038462e0 1.862888503688943e0 1.886320756458197e0 1.910047750683401e0
      1.934073193755669e0 1.958400839699363e0 1.983034489758662e0 2.007977992991496e0
      2.033235246871002e0 2.058810197894478e0 2.084706842200056e0 2.110929226191100e0
      2.137481447168452e0 2.164367653970668e0 2.191592047622253e0 2.219158881990107e0
      2.247072464448191e0 2.275337156550544e0 2.303957374712823e0 2.332937590902334e0
      2.362282333336821e0 2.391996187191998e0 2.422083795317973e0 2.452549858964738e0
      2.483399138516714e0 2.514636454236598e0 2.546266687018528e0 2.578294779150721e0
      2.610725735087742e0 2.643564622232428e0 2.676816571727712e0 2.710486779258359e0
      2.744580505862788e0 2.779103078755156e0 2.814059892157704e0 2.849456408143650e0
      2.885298157490638e0 2.921590740544914e0 2.958339828096427e0 2.995551162264865e0
      3.033230557396902e0 3.071383900974693e0 3.110017154535786e0 3.149136354604659e0
      3.188747613635902e0 3.228857120969332e0 3.269471143797081e0 3.310596028142833e0
      3.352238199853447e0 3.394404165602965e0 3.437100513909327e0 3.480333916163829e0
      3.524111127673519e0 3.568438988716775e0 3.613324425612056e0 3.658774451800205e0
      3.704796168940289e0 3.751396768019231e0 3.798583530475457e0 3.846363829336591e0
      3.894745130371548e0 3.943734993257052e0 3.993341072758837e0 4.043571119927764e0
      4.094432983310880e0 4.145934610177829e0 4.198084047762594e0 4.250889444520883e0
      4.304359051403387e0 4.358501223144953e0 4.413324419570074e0 4.468837206914739e0
      4.525048259164897e0 4.581966359411840e0 4.639600401224516e0 4.697959390039222e0
      4.757052444566703e0 4.816888798216939e0 4.877477800541940e0 4.938828918696574e0
      5.000951738917879e0 5.063855968022914e0 5.127551434925438e0 5.192048092171763e0
      5.257356017495786e0 5.323485415393716e0 5.390446618718524e0 5.458250090294448e0
      5.526906424551886e0 5.596426349182729e0 5.666820726816649e0 5.738100556718381e0
      5.810276976506346e0 5.883361263893002e0 5.957364838446920e0 6.032299263377200e0
      6.108176247340200e0 6.185007646269019e0 6.262805465226074e0 6.341581860278835e0
      6.421349140399315e0 6.502119769387328e0 6.583906367817963e0 6.666721715013642e0
      6.750578751040831e0 6.835490578732030e0 6.921470465733081e0 7.008531846576232e0
      7.096688324779390e0 7.185953674971610e0 7.276341845045478e0 7.367866958336482e0
      7.460543315829751e0 7.554385398394729e0 7.649407869047707e0 7.745625575243064e0
      7.843053551193167e0 7.941707020217446e0 8.041601397121175e0 8.142752290603955e0
      8.245175505698700e0 8.348887046241167e0 8.453903117370535e0 8.560240128061606e0
      8.667914693688617e0 8.776943638621525e0 8.887343998854815e0 8.999133024669353e0
      9.112328183327888e0 9.226947161804228e0 9.343007869546970e0 9.460528441277841e0
      9.579527239825241e0 9.700022858993581e0 9.822034126468470e0 9.945580106758705e0
      1.007068010417508e1 1.019735366584667e1 1.032562058477524e1 1.045550090292781e1
      1.058701491436833e1 1.072018316842870e1 1.085502647291950e1 1.099156589738143e1
      1.112982277637732e1 1.126981871282583e1 1.141157558137685e1 1.155511553182948e1
      1.170046099259304e1 1.184763467419145e1 1.199665957281190e1 1.214755897389801e1
      1.230035645578818e1 1.245507589339985e1 1.261174146195990e1 1.277037764078216e1
      1.293100921709235e1 1.309366128990104e1 1.325835927392555e1 1.342512890356093e1
      1.359399623690113e1 1.376498765981057e1 1.393812989004692e1 1.411344998143596e1
      1.429097532809861e1 1.447073366873149e1 1.465275309094107e1 1.483706203563234e1
      1.502368930145295e1 1.521266404929281e1 1.540401580684078e1 1.559777447319831e1
      1.579397032355116e1 1.599263401390019e1 1.619379658585112e1 1.639748947146513e1
      1.660374449817003e1 1.681259389373333e1 1.702407029129803e1 1.723820673448147e1
      1.745503668253857e1 1.767459401558989e1 1.789691303991536e1 1.812202849331491e1
      1.834997555053605e1 1.858078982877028e1 1.881450739321820e1 1.905116476272469e1
      1.929079891548528e1 1.953344729482382e1 1.977914781504328e1 2.002793886734988e1
      2.027985932585160e1 2.053494855363274e1 2.079324640890401e1 2.105479325123086e1
      2.131962994783957e1 2.158779788000271e1 2.185933894950536e1 2.213429558519200e1
      2.241271074959640e1 2.269462794565448e1 2.298009122350160e1 2.326914518735579e1
      2.356183500248692e1 2.385820640227411e1 2.415830569535159e1 2.446217977284439e1
      2.476987611569542e1 2.508144280208420e1 2.539692851493939e1 2.571638254954554e1
      2.603985482124539e1 2.636739587323961e1 2.669905688448385e1 2.703488967768596e1
      2.737494672740316e1 2.771928116824123e1 2.806794680315720e1 2.842099811186579e1
      2.877849025935233e1 2.914047910449225e1 2.950702120877895e1 2.987817384516208e1
      3.025399500699608e1 3.063454341710216e1 3.101987853694367e1 3.141006057591696e1
      3.180515050075955e1 3.220521004507592e1 3.261030171898383e1 3.302048881888157e1
      3.343583543733790e1 3.385640647310712e1 3.428226764126910e1 3.471348548349783e1
      3.515012737845856e1 3.559226155233560e1 3.603995708949328e1 3.649328394326999e1
      3.695231294690899e1 3.741711582462608e1 3.788776520281642e1 3.836433462140302e1
      3.884689854532699e1 3.933553237618330e1 3.983031246400222e1 4.033131611917897e1
      4.083862162455411e1 4.135230824764483e1 4.187245625303119e1 4.239914691489732e1
      4.293246252973055e1 4.347248642918092e1 4.401930299308122e1 4.457299766263216e1
      4.513365695375245e1 4.570136847059681e1 4.627622091924493e1 4.685830412156131e1
      4.744770902923064e1 4.804452773796900e1 4.864885350191367e1 4.926078074819496e1
      4.988040509168991e1 5.050782334996291e1 5.114313355839339e1 5.178643498549381e1
      5.243782814842110e1 5.309741482868209e1 5.376529808803760e1 5.444158228460580e1
      5.512637308916813e1 5.581977750168122e1 5.652190386799507e1 5.723286189678300e1
      5.795276267668356e1 5.868171869365806e1 5.941984384856745e1 6.016725347496868e1
      6.092406435713659e1 6.169039474831139e1 6.246636438917559e1 6.325209452656451e1
      6.404770793241048e1 6.485332892292696e1 6.566908337803290e1 6.649509876102131e1
      6.733150413847658e1 6.817843020044037e1 6.903600928083311e1 6.990437537813093e1
      7.078366417630301e1 7.167401306601325e1 7.257556116608683e1 7.348844934524874e1
      7.441282024413439e1 7.534881829757713e1 7.629658975717736e1 7.725628271415362e1
      7.822804712248310e1 7.921203482233179e1 8.020839956377946e1 8.121729703084441e1
      8.223888486580814e1 8.327332269384845e1 8.432077214798072e1 8.538139689431290e1
      8.645536265761979e1 8.754283724723656e1 8.864399058328052e1 8.975899472320085e1
      9.088802388866261e1 9.203125449277030e1 9.318886516763131e1 9.436103679226902e1
      9.554795252088468e1 9.674979781147540e1 9.796676045481332e1 9.919903060378706e1
      1.004468008031146e2
      </PP_R>
    <PP_RAB>
      6.332513649684141e-7 6.412166865757099e-7 6.492821995948487e-7 6.574491642786486e-7
      6.657188567319583e-7 6.740925691110480e-7 6.825716098255130e-7 6.911573037427161e-7
      6.998509923947990e-7 7.086540341883019e-7 7.175678046164147e-7 7.265936964739018e-7
      7.357331200747295e-7 7.449875034724286e-7 7.543582926832348e-7 7.638469519120266e-7
      7.734549637811133e-7 7.831838295618978e-7 7.930350694094499e-7 8.030102226000402e-7
      8.131108477716488e-7 8.233385231675090e-7 8.336948468827091e-7 8.441814371138989e-7
      8.547999324121397e-7 8.655519919389231e-7 8.764392957254266e-7 8.874635449350171e-7
      8.986264621290609e-7 9.099297915360832e-7 9.213752993242997e-7 9.329647738775881e-7
      9.447000260749263e-7 9.565828895733452e-7 9.686152210944437e-7 9.807989007145011e-7
      9.931358321582460e-7 1.005627943096316e-6 1.018277185446460e-6 1.031085535678532e-6
      1.044054995123314e-6 1.057187590285230e-6 1.070485373158993e-6 1.083950421550231e-6
      1.097584839400151e-6 1.111390757114281e-6 1.125370331895352e-6 1.139525748080365e-6
      1.153859217481899e-6 1.168372979733709e-6 1.183069302640677e-6 1.197950482533154e-6
      1.213018844625777e-6 1.228276743380778e-6 1.243726562875882e-6 1.259370717176816e-6
      1.275211650714519e-6 1.291251838667084e-6 1.307493787346512e-6 1.323940034590331e-6
      1.340593150158131e-6 1.357455736133102e-6 1.374530427328609e-6 1.391819891699888e-6
      1.409326830760926e-6 1.427053980006568e-6 1.445004109339951e-6 1.463180023505302e-6
      1.481584562526186e-6 1.500220602149274e-6 1.519091054293670e-6 1.538198867505915e-6