<?xml version="1.0" encoding="UTF-8"?>
<UPF version="2.0.1">
  <PP_INFO><![CDATA[
Generated using "atomic" code by A. Dal Corso  v.6.3MaX
Author: MS
Generation date: 11Apr2023
Pseudopotential type: PAW
Element: Bk
Functional:  SLA  PW   PSX  PSC
    Suggested minimum cutoff for wavefunctions:  61. Ry
    Suggested minimum cutoff for charge density: 375. Ry
    The Pseudo was generated with a Scalar-Relativistic Calculation
    Local Potential according to Troullier-Martins recipe, cutoff radius:   1.3000
    Pseudopotential contains additional information for GIPAW reconstruction.
    Valence configuration:
    nl pn  l   occ       Rcut    Rcut US       E pseu
    6S  1  0  2.00      1.200      1.650    -4.008153
    7S  2  0  2.00      1.200      1.650    -0.291654
    6P  2  1  6.00      1.300      2.000    -1.748003
    6D  3  2  0.00      1.400      2.200    -0.067496
    5F  4  3  9.00      1.200      1.800    -0.264742
    Generation configuration:
    6S  1  0  2.00      1.200      1.650    -4.008184
    7S  2  0  2.00      1.200      1.650    -0.291665
    6P  2  1  6.00      1.300      2.000    -1.748026
    7P  3  1  0.00      1.300      2.000     2.500000
    6D  3  2  0.00      1.400      2.200    -0.067506
    6D  3  2  0.00      1.400      2.200     3.500000
    5F  4  3  9.00      1.200      1.800    -0.264773
    5F  4  3  0.00      1.200      2.100     1.100000
    Pseudization used: troullier-martins
]]>
    <PP_INPUTFILE><![CDATA[
 &input
   title='Berkelium',
   zed=97.0,
   rel=1,
   config='[Rn] 6d0.0 7s2.0 7p0.0 5f9.0',
   iswitch=3,
   dft='PBESOL'
 /
 &inputp
   lpaw=.true.,
   pseudotype=3,
   file_pseudopw='Bk.paw.z_19.ld1.uni-marburg.v0.upf',
   author='MS',
   lloc=-2,
   rcloc=1.30,
   which_augfun='PSQ',
   rmatch_augfun_nc=.true.,
   nlcc=.true.,
   new_core_ps=.true.,
   rcore=1.05,
   tm=.true.
   lgipaw_reconstruction=.true.,
   use_paw_as_gipaw=.true.,
 /
8
6S  1  0  2.00  0.00  1.20  1.65  0.0
7S  2  0  2.00  0.00  1.20  1.65  0.0
6P  2  1  6.00  0.00  1.30  2.00  0.0
7P  3  1  0.00  2.50  1.30  2.00  0.0
6D  3  2  0.00  0.00  1.40  2.20  0.0
6D  3  2  0.00  3.50  1.40  2.20  0.0
5F  4  3  9.00  0.00  1.20  1.80  0.0
5F  4  3  0.00  1.10  1.20  2.10  0.0
]]></PP_INPUTFILE>
  </PP_INFO>
  <!--
 END OF HUMAN READABLE SECTION 
-->
  <PP_HEADER generated="Generated using &quot;atomic&quot; code by A. Dal Corso  v.6.3MaX" author="MS" date="11Apr2023" comment="" element="Bk" pseudo_type="PAW" relativistic="scalar" is_ultrasoft="true" is_paw="true" is_coulomb="false" has_so="false" has_wfc="true" has_gipaw="true" paw_as_gipaw="true" core_correction="true" functional=" SLA  PW   PSX  PSC" z_valence="1.900000000000e1" total_psenergy="-1.211545184202e3" wfc_cutoff="6.087867152423e1" rho_cutoff="3.746264352917e2" l_max="3" l_max_rho="6" l_local="-2" mesh_size="1295" number_of_wfc="5" number_of_proj="8"/>
  <PP_MESH dx="1.250000000000e-2" mesh="1295" xmin="-7.000000000000e0" rmax="1.000000000000e2" zmesh="9.700000000000e1">
    <PP_R>
      9.400845005716663e-6 9.519093079062085e-6 9.638828530067855e-6 9.760070067641793e-6
      9.882836636020825e-6 1.000714741773102e-5 1.013302183658493e-5 1.026047956071661e-5
      1.038954050565475e-5 1.052022483743458e-5 1.065255297574883e-5 1.078654559713834e-5
      1.092222363822278e-5 1.105960829897213e-5 1.119872104601915e-5 1.133958361601359e-5
      1.148221801901859e-5 1.162664654194982e-5 1.177289175205781e-5 1.192097650045420e-5
      1.207092392568221e-5 1.222275745733209e-5 1.237650081970207e-5 1.253217803550530e-5
      1.268981342962352e-5 1.284943163290773e-5 1.301105758602695e-5 1.317471654336520e-5
      1.334043407696750e-5 1.350823608053567e-5 1.367814877347414e-5 1.385019870498688e-5
      1.402441275822571e-5 1.420081815449090e-5 1.437944245748453e-5 1.456031357761733e-5
      1.474345977636984e-5 1.492890967070820e-5 1.511669223755570e-5 1.530683681832048e-5
      1.549937312348012e-5 1.569433123722404e-5 1.589174162215413e-5 1.609163512404466e-5
      1.629404297666203e-5 1.649899680664499e-5 1.670652863844646e-5 1.691667089933738e-5
      1.712945642447355e-5 1.734491846202619e-5 1.756309067837705e-5 1.778400716337879e-5
      1.800770243568164e-5 1.823421144812702e-5 1.846356959320897e-5 1.869581270860428e-5
      1.893097708277224e-5 1.916909946062475e-5 1.941021704926781e-5 1.965436752381522e-5
      1.990158903327535e-5 2.015192020651202e-5 2.040540015828038e-5 2.066206849533855e-5
      2.092196532263643e-5 2.118513124958205e-5 2.145160739638690e-5 2.172143540049107e-5
      2.199465742306915e-5 2.227131615561809e-5 2.255145482662768e-5 2.283511720833522e-5
      2.312234762356499e-5 2.341319095265368e-5 2.370769264046325e-5 2.400589870348158e-5
      2.430785573701271e-5 2.461361092245746e-5 2.492321203468560e-5 2.523670744950086e-5
      2.555414615119957e-5 2.587557774022472e-5 2.620105244091606e-5 2.653062110935773e-5
      2.686433524132472e-5 2.720224698032909e-5 2.754440912576753e-5 2.789087514117141e-5
      2.824169916256050e-5 2.859693600690195e-5 2.895664118067539e-5 2.932087088854606e-5
      2.968968204214683e-5 3.006313226897080e-5 3.044127992137573e-5 3.082418408570165e-5
      3.121190459150325e-5 3.160450202089838e-5 3.200203771803411e-5 3.240457379867197e-5
      3.281217315989347e-5 3.322489948992811e-5 3.364281727810462e-5 3.406599182492764e-5
      3.449448925228116e-5 3.492837651375992e-5 3.536772140513129e-5 3.581259257492839e-5
      3.626305953517658e-5 3.671919267225494e-5 3.718106325789413e-5 3.764874346031282e-5
      3.812230635549414e-5 3.860182593860392e-5 3.908737713555266e-5 3.957903581470272e-5
      4.007687879872299e-5 4.058098387659261e-5 4.109142981575557e-5 4.160829637442843e-5
      4.213166431406254e-5 4.266161541196327e-5 4.319823247406783e-5 4.374159934788391e-5
      4.429180093559113e-5 4.484892320730689e-5 4.541305321451966e-5 4.598427910369074e-5
      4.656269013002749e-5 4.714837667142962e-5 4.774143024261078e-5 4.834194350939805e-5
      4.895001030321111e-5 4.956572563572356e-5 5.018918571370890e-5 5.082048795407270e-5
      5.145973099907440e-5 5.210701473174034e-5 5.276244029147064e-5 5.342611008984253e-5
      5.409812782661221e-5 5.477859850591830e-5 5.546762845268887e-5 5.616532532925490e-5
      5.687179815217291e-5 5.758715730925877e-5 5.831151457683617e-5 5.904498313720191e-5
      5.978767759631074e-5 6.053971400168301e-5 6.130120986053706e-5 6.207228415815010e-5
      6.285305737644988e-5 6.364365151284023e-5 6.444419009926351e-5 6.525479822150254e-5
      6.607560253872559e-5 6.690673130327718e-5 6.774831438071765e-5 6.860048327011520e-5
      6.946337112459244e-5 7.033711277213223e-5 7.122184473664467e-5 7.211770525929908e-5
      7.302483432012501e-5 7.394337365988351e-5 7.487346680221536e-5 7.581525907606634e-5
      7.676889763839522e-5 7.773453149716779e-5 7.871231153463878e-5 7.970239053092856e-5
      8.070492318789457e-5 8.172006615330407e-5 8.274797804531095e-5 8.378881947723929e-5
      8.484275308268074e-5 8.590994354090526e-5 8.699055760259311e-5 8.808476411589016e-5
      8.919273405279004e-5 9.031464053584976e-5 9.145065886523978e-5 9.260096654613523e-5
      9.376574331645180e-5 9.494517117492929e-5 9.613943440957037e-5 9.734871962643519e-5
      9.857321577879901e-5 9.981311419667726e-5 1.010686086167199e-4 1.023398952124846e-4
      1.036271726250885e-4 1.049306419942461e-4 1.062505069896984e-4 1.075869738430361e-4
      1.089402513799243e-4 1.103105510527312e-4 1.116980869735686e-4 1.131030759477473e-4
      1.145257375076526e-4 1.159662939470481e-4 1.174249703558080e-4 1.189019946550889e-4
      1.203975976329428e-4 1.219120129803775e-4 1.234454773278724e-4 1.249982302823516e-4
      1.265705144646231e-4 1.281625755472896e-4 1.297746622931340e-4 1.314070265939904e-4
      1.330599235101018e-4 1.347336113099740e-4 1.364283515107314e-4 1.381444089189776e-4
      1.398820516721746e-4 1.416415512805376e-4 1.434231826694600e-4 1.452272242224715e-4
      1.470539578247346e-4 1.489036689070915e-4 1.507766464906621e-4 1.526731832320041e-4
      1.545935754688425e-4 1.565381232663706e-4 1.585071304641385e-4 1.605009047235267e-4
      1.625197575758194e-4 1.645640044708827e-4 1.666339648264523e-4 1.687299620780457e-4
      1.708523237294975e-4 1.730013814041336e-4 1.751774708965885e-4 1.773809322252720e-4
      1.796121096855002e-4 1.818713519032904e-4 1.841590118898354e-4 1.864754470966630e-4
      1.888210194714864e-4 1.911960955147618e-4 1.936010463369526e-4 1.960362477165181e-4
      1.985020801586281e-4 2.009989289546185e-4 2.035271842421936e-4 2.060872410663859e-4
      2.086794994412824e-4 2.113043644125284e-4 2.139622461206159e-4 2.166535598649694e-4
      2.193787261688369e-4 2.221381708449977e-4 2.249323250622966e-4 2.277616254130149e-4
      2.306265139810887e-4 2.335274384111852e-4 2.364648519786488e-4 2.394392136603255e-4
      2.424509882062794e-4 2.455006462124111e-4 2.485886641939883e-4 2.517155246601035e-4
      2.548817161890659e-4 2.580877335047438e-4 2.613340775538654e-4 2.646212555842931e-4
      2.679497812242819e-4 2.713201745627352e-4 2.747329622304689e-4 2.781886774824998e-4
      2.816878602813667e-4 2.852310573815008e-4 2.888188224146580e-4 2.924517159764237e-4
      2.961303057138086e-4 2.998551664139431e-4 3.036268800938896e-4 3.074460360915847e-4
      3.113132311579227e-4 3.152290695500009e-4 3.191941631255349e-4 3.232091314384628e-4
      3.272746018357521e-4 3.313912095554233e-4 3.355595978258086e-4 3.397804179660553e-4
      3.440543294878978e-4 3.483820001987068e-4 3.527641063058354e-4 3.572013325222786e-4
      3.616943721736602e-4 3.662439273065666e-4 3.708507087982440e-4 3.755154364676726e-4
      3.802388391880413e-4 3.850216550006352e-4 3.898646312301556e-4 3.947685246014914e-4
      3.997341013579589e-4 4.047621373810290e-4 4.098534183115600e-4 4.150087396725552e-4
      4.202289069934663e-4 4.255147359360572e-4 4.308670524218549e-4 4.362866927611991e-4
      4.417745037839194e-4 4.473313429716534e-4 4.529580785918291e-4 4.586555898333352e-4
      4.644247669438951e-4 4.702665113691690e-4 4.761817358936095e-4 4.821713647830823e-4
      4.882363339292879e-4 4.943775909959946e-4 5.005960955671131e-4 5.068928192966348e-4
      5.132687460604530e-4 5.197248721100967e-4 5.262622062283961e-4 5.328817698871074e-4
      5.395845974065193e-4 5.463717361170701e-4 5.532442465229909e-4 5.602032024680153e-4
      5.672496913031676e-4 5.743848140566639e-4 5.816096856059520e-4 5.889254348519103e-4
      5.963332048952421e-4 6.038341532150882e-4 6.114294518498838e-4 6.191202875804942e-4
      6.269078621156492e-4 6.347933922797138e-4 6.427781102028192e-4 6.508632635133853e-4
      6.590501155330677e-4 6.673399454741499e-4 6.757340486394265e-4 6.842337366245942e-4
      6.928403375231934e-4 7.015551961341258e-4 7.103796741717793e-4 7.193151504788007e-4
      7.283630212415425e-4 7.375247002082186e-4 7.468016189098091e-4 7.561952268837334e-4
      7.657069919003495e-4 7.753384001922931e-4 7.850909566867044e-4 7.949661852403784e-4
      8.049656288778678e-4 8.150908500325846e-4 8.253434307909338e-4 8.357249731395179e-4
      8.462370992154515e-4 8.568814515598202e-4 8.676596933743340e-4 8.785735087812050e-4
      8.896246030862937e-4 9.008147030455710e-4 9.121455571349207e-4 9.236189358233476e-4
      9.352366318496140e-4 9.470004605023597e-4 9.589122599037472e-4 9.709738912966669e-4
      9.831872393355635e-4 9.955542123809160e-4 1.008076742797423e-3 1.020756787255941e-3
      1.033596327039214e-3 1.046597368351454e-3 1.059761942631819e-3 1.073092106871821e-3
      1.086589943936746e-3 1.100257562891095e-3 1.114097099328137e-3 1.128110715703598e-3
      1.142300601673546e-3 1.156668974436533e-3 1.171218079080039e-3 1.185950188931262e-3
      1.200867605912340e-3 1.215972660900027e-3 1.231267714089893e-3 1.246755155365120e-3
      1.262437404669917e-3 1.278316912387642e-3 1.294396159723683e-3 1.310677659093150e-3
      1.327163954513446e-3 1.343857622001770e-3 1.360761269977632e-3 1.377877539670417e-3
      1.395209105532090e-3 1.412758675655077e-3 1.430528992195415e-3 1.448522831801218e-3
      1.466743006046533e-3 1.485192361870652e-3 1.503873782022963e-3 1.522790185513370e-3
      1.541944528068403e-3 1.561339802593058e-3 1.580979039638438e-3 1.600865307875289e-3
      1.621001714573481e-3 1.641391406087529e-3 1.662037568348215e-3 1.682943427360396e-3
      1.704112249707078e-3 1.725547343059820e-3 1.747252056695569e-3 1.769229782019988e-3
      1.791483953097373e-3 1.814018047187232e-3 1.836835585287613e-3 1.859940132685267e-3
      1.883335299512730e-3 1.907024741312415e-3 1.931012159607805e-3 1.955301302481807e-3
      1.979895965162415e-3 2.004799990615708e-3 2.030017270146331e-3 2.055551744005518e-3
      2.081407402006757e-3 2.107588284149218e-3 2.134098481248998e-3 2.160942135578328e-3
      2.188123441512816e-3 2.215646646186811e-3 2.243516050157041e-3 2.271736008074577e-3
      2.300310929365256e-3 2.329245278918668e-3 2.358543577785799e-3 2.388210403885452e-3
      2.418250392719565e-3 2.448668238097507e-3 2.479468692869507e-3 2.510656569669287e-3
      2.542236741666048e-3 2.574214143325915e-3 2.606593771182953e-3 2.639380684619898e-3
      2.672580006658676e-3 2.706196924760901e-3 2.740236691638420e-3 2.774704626074060e-3
      2.809606113752708e-3 2.844946608102816e-3 2.880731631148530e-3 2.916966774372506e-3
      2.953657699589589e-3 2.990810139831499e-3 3.028429900242608e-3 3.066522858987017e-3
      3.105094968167034e-3 3.144152254753188e-3 3.183700821525978e-3 3.223746848029421e-3
      3.264296591536633e-3 3.305356388027535e-3 3.346932653178864e-3 3.389031883366641e-3
      3.431660656681234e-3 3.474825633955201e-3 3.518533559804061e-3 3.562791263680150e-3
      3.607605660939747e-3 3.652983753923596e-3 3.698932633051050e-3 3.745459477927953e-3
      3.792571558468478e-3 3.840276236031062e-3 3.888580964568630e-3 3.937493291793290e-3
      3.987020860355686e-3 4.037171409039164e-3 4.087952773969000e-3 4.139372889836770e-3
      4.191439791140199e-3 4.244161613438544e-3 4.297546594623797e-3 4.351603076207892e-3
      4.406339504626050e-3 4.461764432556572e-3 4.517886520257211e-3 4.574714536918350e-3
      4.632257362033213e-3 4.690523986785296e-3 4.749523515453259e-3 4.809265166833492e-3
      4.869758275680564e-3 4.931012294165816e-3 4.993036793354254e-3 5.055841464700066e-3
      5.119436121560926e-3 5.183830700731349e-3 5.249035263995353e-3 5.315059999698601e-3
      5.381915224340375e-3 5.449611384185545e-3 5.518159056896808e-3 5.587568953187496e-3
      5.657851918495119e-3 5.729018934675998e-3 5.801081121721197e-3 5.874049739494051e-3
      5.947936189489554e-3 6.022752016615835e-3 6.098508910998097e-3 6.175218709805215e-3
      6.252893399099313e-3 6.331545115708638e-3 6.411186149123921e-3 6.491828943418664e-3
      6.573486099193544e-3 6.656170375545280e-3 6.739894692060282e-3 6.824672130833342e-3
      6.910515938511750e-3 6.997439528365101e-3 7.085456482381157e-3 7.174580553388063e-3
      7.264825667203234e-3 7.356205924809309e-3 7.448735604557450e-3 7.542429164398369e-3
      7.637301244141423e-3 7.733366667742083e-3 7.830640445618236e-3 7.929137776995578e-3
      8.028874052282525e-3 8.129864855475017e-3 8.232125966591520e-3 8.335673364138691e-3
      8.440523227608065e-3 8.546691940004127e-3 8.654196090404200e-3 8.763052476550499e-3
      8.873278107474826e-3 8.984890206156273e-3 9.097906212212322e-3 9.212343784623876e-3
      9.328220804494430e-3 9.445555377844105e-3 9.564365838438697e-3 9.684670750654391e-3
      9.806488912378496e-3 9.929839357946619e-3 1.005474136111684e-2 1.018121443808126e-2
      1.030927835051546e-2 1.043895310866634e-2 1.057025897447865e-2 1.070321646476109e-2
      1.083784635439201e-2 1.097416967956556e-2 1.111220774107868e-2 1.125198210765930e-2
      1.139351461933658e-2 1.153682739085342e-2 1.168194281512192e-2 1.182888356672240e-2
      1.197767260544622e-2 1.212833317988341e-2 1.228088883105525e-2 1.243536339609258e-2
      1.259178101196051e-2 1.275016611922974e-2 1.291054346589552e-2 1.307293811124454e-2
      1.323737542977053e-2 1.340388111513908e-2 1.357248118420229e-2 1.374320198106395e-2
      1.391607018119592e-2 1.409111279560615e-2 1.426835717505930e-2 1.444783101435024e-2
      1.462956235663153e-2 1.481357959779511e-2 1.499991149090929e-2 1.518858715071150e-2
      1.537963605815743e-2 1.557308806502756e-2 1.576897339859154e-2 1.596732266633127e-2
      1.616816686072339e-2 1.637153736408190e-2 1.657746595346169e-2 1.678598480562382e-2
      1.699712650206318e-2 1.721092403409941e-2 1.742741080803187e-2 1.764662065035943e-2
      1.786858781306594e-2 1.809334697897215e-2 1.832093326715504e-2 1.855138223843515e-2
      1.878472990093309e-2 1.902101271569589e-2 1.926026760239404e-2 1.950253194509041e-2
      1.974784359808141e-2 1.999624089181191e-2 2.024776263886442e-2 2.050244814002363e-2
      2.076033719041729e-2 2.102147008573418e-2 2.128588762852049e-2 2.155363113455523e-2
      2.182474243930593e-2 2.209926390446556e-2 2.237723842457158e-2 2.265870943370828e-2
      2.294372091229349e-2 2.323231739395060e-2 2.352454397246706e-2 2.382044630884026e-2
      2.412007063841229e-2 2.442346377809424e-2 2.473067313368142e-2 2.504174670726071e-2
      2.535673310471083e-2 2.567568154329724e-2 2.599864185936237e-2 2.632566451611265e-2
      2.665680061150357e-2 2.699210188622373e-2 2.733162073177946e-2 2.767541019868116e-2
      2.802352400473243e-2 2.837601654342379e-2 2.873294289243145e-2 2.909435882222371e-2
      2.946032080477490e-2 2.983088602238929e-2 3.020611237663613e-2 3.058605849739658e-2
      3.097078375202507e-2 3.136034825462542e-2 3.175481287544362e-2 3.215423925037934e-2
      3.255868979061617e-2 3.296822769237396e-2 3.338291694678313e-2 3.380282234988323e-2
      3.422800951274795e-2 3.465854487173639e-2 3.509449569887441e-2 3.553593011236575e-2
      3.598291708723548e-2 3.643552646610797e-2 3.689382897011939e-2 3.735789620996846e-2
      3.782780069710564e-2 3.830361585506293e-2 3.878541603092695e-2 3.927327650695529e-2
      3.976727351233993e-2 4.026748423511809e-2 4.077398683423276e-2 4.128686045174566e-2
      4.180618522520286e-2 4.233204230015682e-2 4.286451384284548e-2 4.340368305303052e-2
      4.394963417699817e-2 4.450245252072211e-2 4.506222446319336e-2 4.562903746991688e-2
      4.620298010657798e-2 4.678414205288152e-2 4.737261411656382e-2 4.796848824758215e-2
      4.857185755248191e-2 4.918281630894436e-2 4.980145998051839e-2 5.042788523153615e-2
      5.106218994221766e-2 5.170447322396456e-2 5.235483543484620e-2 5.301337819528136e-2
      5.368020440391598e-2 5.435541825370196e-2 5.503912524817711e-2 5.573143221795017e-2
      5.643244733739387e-2 5.714228014154664e-2 5.786104154322840e-2 5.858884385037060e-2
      5.932580078356423e-2 6.007202749382968e-2 6.082764058060843e-2 6.159275810998270e-2
      6.236749963312320e-2 6.315198620496894e-2 6.394634040314301e-2 6.475068634710480e-2
      6.556514971754464e-2 6.638985777602127e-2 6.722493938484653e-2 6.807052502722097e-2
      6.892674682762135e-2 6.979373857244610e-2 7.067163573091940e-2 7.156057547625810e-2
      7.246069670710620e-2 7.337214006923708e-2 7.429504797753057e-2 7.522956463822512e-2
      7.617583607145001e-2 7.713401013404213e-2 7.810423654264792e-2 7.908666689711781e-2
      8.008145470419359e-2 8.108875540149374e-2 8.210872638180186e-2 8.314152701765851e-2
      8.418731868626439e-2 8.524626479469561e-2 8.631853080543571e-2 8.740428426223074e-2
      8.850369481626698e-2 8.961693425268042e-2 9.074417651739807e-2 9.188559774431688e-2
      9.304137628282609e-2 9.421169272567347e-2 9.539672993718442e-2 9.659667308183440e-2
      9.781170965318069e-2 9.904202950315993e-2 1.002878248717514e-1 1.015492904170163e-1
      1.028266232455126e-1 1.041200229430933e-1 1.054296916060929e-1 1.067558338729041e-1
      1.080986569559543e-1 1.094583706740826e-1 1.108351874853232e-1 1.122293225201046e-1
      1.136409936148619e-1 1.150704213460759e-1 1.165178290647380e-1 1.179834429312487e-1
      1.194674919507567e-1 1.209702080089403e-1 1.224918259082412e-1 1.240325834045519e-1
      1.255927212443657e-1 1.271724832023945e-1 1.287721161196579e-1 1.303918699420539e-1
      1.320319977594128e-1 1.336927558450426e-1 1.353744036957735e-1 1.370772040725030e-1
      1.388014230412547e-1 1.405473300147501e-1 1.423151977945061e-1 1.441053026134603e-1
      1.459179241791321e-1 1.477533457173294e-1 1.496118540164013e-1 1.514937394720509e-1
      1.533992961327098e-1 1.553288217454824e-1 1.572826178026720e-1 1.592609895888869e-1
      1.612642462287440e-1 1.632927007351694e-1 1.653466700583059e-1 1.674264751350398e-1
      1.695324409391450e-1 1.716648965320633e-1 1.738241751143201e-1 1.760106140775862e-1
      1.782245550573986e-1 1.804663439865391e-1 1.827363311490891e-1 1.850348712351614e-1
      1.873623233963203e-1 1.897190513017018e-1 1.921054231948352e-1 1.945218119511844e-1
      1.969685951364090e-1 1.994461550653590e-1 2.019548788618146e-1 2.044951585189725e-1
      2.070673909606976e-1 2.096719781035425e-1 2.123093269195468e-1 2.149798494998292e-1
      2.176839631189755e-1 2.204220903002406e-1 2.231946588815678e-1 2.260021020824378e-1
      2.288448585715636e-1 2.317233725354291e-1 2.346380937476983e-1 2.375894776394907e-1
      2.405779853705435e-1 2.436040839012706e-1 2.466682460657232e-1 2.497709506454740e-1
      2.529126824444266e-1 2.560939323645655e-1 2.593151974826639e-1 2.625769811279494e-1
      2.658797929607532e-1 2.692241490521443e-1 2.726105719645649e-1 2.760395908334861e-1
      2.795117414500815e-1 2.830275663449495e-1 2.865876148728834e-1 2.901924432987078e-1
      2.938426148841992e-1 2.975386999760932e-1 3.012812760952056e-1 3.050709280266699e-1
      3.089082479113095e-1 3.127938353381645e-1 3.167282974381746e-1 3.207122489790480e-1
      3.247463124613192e-1 3.288311182156134e-1 3.329673045011415e-1 3.371555176054244e-1
      3.413964119452816e-1 3.456906501690821e-1 3.500389032602840e-1 3.544418506422807e-1
      3.589001802845572e-1 3.634145888101911e-1 3.679857816047001e-1 3.726144729262570e-1
      3.773013860172993e-1 3.820472532175319e-1 3.868528160783609e-1 3.917188254787609e-1
      3.966460417425994e-1 4.016352347574435e-1 4.066871840948511e-1 4.118026791321848e-1
      4.169825191759529e-1 4.222275135866989e-1 4.275384819054723e-1 4.329162539818764e-1
      4.383616701037401e-1 4.438755811284119e-1 4.494588486157063e-1 4.551123449625287e-1
      4.608369535391841e-1 4.666335688274099e-1 4.725030965601393e-1 4.784464538630203e-1
      4.844645693977252e-1 4.905583835070485e-1 4.967288483618434e-1 5.029769281097986e-1
      5.093035990260844e-1 5.157098496659053e-1 5.221966810189553e-1 5.287651066658320e-1
      5.354161529364071e-1 5.421508590701903e-1 5.489702773787185e-1 5.558754734099749e-1
      5.628675261148890e-1 5.699475280159225e-1 5.771165853777748e-1 5.843758183802461e-1
      5.917263612932602e-1 5.991693626541029e-1 6.067059854468811e-1 6.143374072842370e-1
      6.220648205913614e-1 6.298894327923028e-1 6.378124664986380e-1 6.458351597005043e-1
      6.539587659600344e-1 6.621845546072366e-1 6.705138109383197e-1 6.789478364165330e-1
      6.874879488755177e-1 6.961354827252181e-1 7.048917891603940e-1 7.137582363717386e-1
      7.227362097596686e-1 7.318271121507931e-1 7.410323640171038e-1 7.503534036979355e-1
      7.597916876246994e-1 7.693486905484630e-1 7.790259057703781e-1 7.888248453750092e-1
      7.987470404666079e-1 8.087940414083418e-1 8.189674180645499e-1 8.292687600460342e-1
      8.396996769584344e-1 8.502617986537436e-1 8.609567754849616e-1 8.717862785639793e-1
      8.827520000226873e-1 8.938556532773701e-1 9.050989732964425e-1 9.164837168715291e-1
      9.280116628919775e-1 9.396846126228088e-1 9.515043899861638e-1 9.634728418463066e-1
      9.755918382981871e-1 9.878632729596585e-1 1.000289063267355e0 1.012871150776289e0
      1.025611501463237e0 1.038512106033908e0 1.051574980234018e0 1.064802165164236e0
      1.078195727599116e0 1.091757760310041e0 1.105490382392212e0 1.119395739595769e0
      1.133476004661068e0 1.147733377658169e0 1.162170086330612e0 1.176788386443495e0
      1.191590562135955e0 1.206578926278061e0 1.221755820832199e0 1.237123617219026e0
      1.252684716687989e0 1.268441550692542e0 1.284396581270056e0 1.300552301426517e0
      1.316911235526073e0 1.333475939685453e0 1.350249002173388e0 1.367233043815017e0
      1.384430718401397e0 1.401844713104176e0 1.419477748895451e0 1.437332580972940e0
      1.455411999190485e0 1.473718828493959e0 1.492255929362692e0 1.511026198256404e0
      1.530032568067800e0 1.549278008580835e0 1.568765526934738e0 1.588498168093906e0
      1.608479015323661e0 1.628711190672036e0 1.649197855457595e0 1.669942210763385e0
      1.690947497937134e0 1.712216999097692e0 1.733754037647891e0 1.755561978793826e0
      1.777644230070663e0 1.800004241875097e0 1.822645508004458e0 1.845571566202646e0
      1.868785998712901e0 1.892292432837526e0 1.916094541504684e0 1.940196043842273e0
      1.964600705759072e0 1.989312340533161e0 2.014334809407742e0 2.039672022194492e0
      2.065327937884452e0 2.091306565266648e0 2.117611963554467e0 2.144248243019903e0
      2.171219565635822e0 2.198530145726248e0 2.226184250624888e0 2.254186201341899e0
      2.282540373239043e0 2.311251196713374e0 2.340323157889465e0 2.369760799320400e0
      2.399568720697550e0 2.429751579569264e0 2.460314092068658e0 2.491261033650482e0
      2.522597239837324e0 2.554327606975158e0 2.586457092998398e0 2.618990718204611e0
      2.651933566038917e0 2.685290783888318e0 2.719067583885971e0 2.753269243725589e0
      2.787901107486114e0 2.822968586466707e0 2.858477160032309e0 2.894432376469789e0
      2.930839853854855e0 2.967705280929931e0 3.005034417992992e0 3.042833097797653e0
      3.081107226464542e0 3.119862784404122e0 3.159105827251181e0 3.198842486810994e0
      3.239078972017466e0 3.279821569903279e0 3.321076646582232e0 3.362850648244003e0
      3.405150102161329e0 3.447981617709949e0 3.491351887401315e0 3.535267687928293e0
      3.579735881224073e0 3.624763415534317e0 3.670357326502877e0 3.716524738271111e0
      3.763272864591019e0 3.810609009952466e0 3.858540570724455e0 3.907075036310882e0
      3.956219990320744e0 4.005983111753080e0 4.056372176196871e0 4.107395057045937e0
      4.159059726729228e0 4.211374257956501e0 4.264346824979678e0 4.317985704870147e0
      4.372299278812006e0 4.427296033411690e0 4.482984562024007e0 4.539373566094834e0
      4.596471856520799e0 4.654288355025933e0 4.712832095555762e0 4.772112225688861e0
      4.832138008066154e0 4.892918821838277e0 4.954464164131024e0 5.016783651529352e0
      5.079887021579967e0 5.143784134312805e0 5.208484973781747e0 5.273999649624580e0
      5.340338398642701e0 5.407511586400623e0 5.475529708845579e0 5.544403393947603e0
      5.614143403360098e0 5.684760634101431e0 5.756266120257588e0 5.828671034706239e0
      5.901986690862596e0 5.976224544447077e0 6.051396195275349e0 6.127513389070806e0
      6.204588019299817e0 6.282632129030187e0 6.361657912812821e0 6.441677718587226e0
      6.522704049610867e0 6.604749566412792e0 6.687827088771948e0 6.771949597720204e0
      6.857130237570741e0 6.943382317971850e0 7.030719315986552e0 7.119154878198499e0
      7.208702822844184e0 7.299377141972158e0 7.391192003629278e0 7.484161754074447e0
      7.578300920020349e0 7.673624210903165e0 7.770146521181045e0 7.867882932661357e0
      7.966848716857216e0 8.067059337373779e0 8.168530452324351e0 8.271277916777104e0
      8.375317785232411e0 8.480666314131366e0 8.587339964395966e0 8.695355404001067e0
      8.804729510578882e0 8.915479374056101e0 9.027622299324184e0 9.141175808943395e0
      9.256157645880602e0 9.372585776281776e0 9.490478392279186e0 9.609853914833900e0
      9.730730996614223e0 9.853128524910078e0 9.977065624584295e0 1.010256166106087e1
      1.022963624335079e1 1.035830922711610e1 1.048860071777228e1 1.062053107362984e1
      1.075412090907530e1 1.088939109779222e1 1.102636277602283e1 1.116505734587048e1
      1.130549647864390e1 1.144770211824335e1 1.159169648458928e1 1.173750207709444e1
      1.188514167817927e1 1.203463835683181e1 1.218601547221229e1 1.233929667730292e1
      1.249450592260390e1 1.265166745987554e1 1.281080584592779e1 1.297194594645728e1
      1.313511293993252e1 1.330033232152823e1 1.346762990710890e1 1.363703183726265e1
      1.380856458138576e1 1.398225494181844e1 1.415813005803291e1 1.433621741087387e1
      1.451654482685253e1 1.469914048249456e1 1.488403290874258e1 1.507125099541443e1
      1.526082399571697e1 1.545278153081724e1 1.564715359447065e1 1.584397055770755e1
      1.604326317357893e1 1.624506258196142e1 1.644940031442319e1 1.665630829915068e1
      1.686581886593739e1 1.707796475123572e1 1.729277910327179e1 1.751029548722518e1
      1.773054789047345e1 1.795357072790265e1 1.817939884728494e1 1.840806753472337e1
      1.863961252016560e1 1.887406998298673e1 1.911147655764225e1 1.935186933939255e1
      1.959528589009877e1 1.984176424409224e1 2.009134291411727e1 2.034406089734874e1
      2.059995768148578e1 2.085907325092145e1 2.112144809299070e1 2.138712320429643e1
      2.165614009711523e1 2.192854080588401e1 2.220436789376763e1 2.248366445930979e1
      2.276647414316713e1 2.305284113492804e1 2.334281018001770e1 2.363642658668926e1
      2.393373623310368e1 2.423478557449812e1 2.453962165044460e1 2.484829209220024e1
      2.516084513014949e1 2.547732960134047e1 2.579779495711573e1 2.612229127083901e1
      2.645086924571963e1 2.678358022273454e1 2.712047618865089e1 2.746160978414879e1
      2.780703431204650e1 2.815680374562936e1 2.851097273708289e1 2.886959662603261e1
      2.923273144819086e1 2.960043394411228e1 2.997276156806008e1 3.034977249698289e1
      3.073152563960545e1 3.111808064563302e1 3.150949791507164e1 3.190583860766613e1
      3.230716465245593e1 3.271353875745212e1 3.312502441943543e1 3.354168593387761e1
      3.396358840498810e1 3.439079775588627e1 3.482338073890242e1 3.526140494600780e1