<UPF version="2.0.1">
   <PP_INFO>
         UPF file from ATOMPAW code with following input
           Lu  71
           GGA-PBESOL  loggrid 2001 scalarrelativistic logderivrange -8 8 500
           6 5 5 4 0
           5 2 1
           0 0 0
           c
           c
           c
           c
           v
           v
           c
           c
           c
           v
           c
           c
           v
           v
           3
           2.25 1.9 2.25 2.25
           n
           y
           2.0
           n
           y
           2.0
           n
           y
           2.0
           n
           VANDERBILT BESSELSHAPE
           4 0.0
           2.21
           2.21
           2.21
           2.21
           2.21
           2.12
           2.21
           2.21
           PWSCFOUT
           UPFDX  0.0125d0  UPFXMIN  -7.d0  UPFZMESH  71.0
           END
  </PP_INFO>
  <!--                               -->
  <!-- END OF HUMAN READABLE SECTION -->
  <PP_HEADER generated="Generated using ATOMPAW code"
             author="   "
             date=" 11/23/2022, 16:03:46.674"
             element="Lu"
             pseudo_type="PAW"
             relativistic="scalar"
             is_ultrasoft="T"
             is_paw="T"
             is_coulomb="F"
             has_so="F"
             has_wfc="T"
             has_gipaw="T"
             paw_as_gipaw="T"
             core_correction="T"
             functional="SLA PW PSX PSC"
             z_valence="25.000"
             l_max="3"
             l_max_rho="6"
             mesh_size="  1118"
             number_of_wfc="     8"
             number_of_proj=" 8"
                                    /> 
<PP_MESH dx=" 1.2500000000000E-02" mesh="  1118" xmin="-7.0000000000000E+00" zmesh=" 7.1000000000000E+01">
 <PP_R type="real" size="  1118" columns="3">
  1.28434079655565673E-05  1.30049581502679191E-05  1.31685403861490447E-05
  1.33341802332570990E-05  1.35019035731552099E-05  1.36717366129564630E-05
  1.38437058894188550E-05  1.40178382730917084E-05  1.41941609725142319E-05
  1.43727015384669658E-05  1.45534878682765776E-05  1.47365482101749085E-05
  1.49219111677128186E-05  1.51096057042295320E-05  1.52996611473782798E-05
  1.54921071937087061E-05  1.56869739133070889E-05  1.58842917544948232E-05
  1.60840915485860207E-05  1.62864045147050403E-05  1.64912622646644282E-05
  1.66986968079044049E-05  1.69087405564943773E-05  1.71214263301973897E-05
  1.73367873615983254E-05  1.75548573012964728E-05  1.77756702231635841E-05
  1.79992606296679482E-05  1.82256634572654641E-05  1.84549140818585922E-05
  1.86870483243238236E-05  1.89221024561088294E-05  1.91601132048999147E-05
  1.94011177603608052E-05  1.96451537799436461E-05  1.98922593947729802E-05
  2.01424732156038665E-05  2.03958343388548683E-05  2.06523823527169433E-05
  2.09121573433392505E-05  2.11751999010925694E-05  2.14415511269117130E-05
  2.17112526387176100E-05  2.19843465779201730E-05  2.22608756160030580E-05
  2.25408829611910474E-05  2.28244123652015017E-05  2.31115081300806479E-05
  2.34022151151258302E-05  2.36965787438949453E-05  2.39946450113038600E-05
  2.42964604908132726E-05  2.46020723417059112E-05  2.49115283164552193E-05
  2.52248767681868996E-05  2.55421666582340174E-05  2.58634475637874258E-05
  2.61887696856422686E-05  2.65181838560419353E-05  2.68517415466207943E-05
  2.71894948764466082E-05  2.75314966201643250E-05  2.78778002162422083E-05
  2.82284597753216780E-05  2.85835300886723086E-05  2.89430666367529433E-05
  2.93071255978806938E-05  2.96757638570089322E-05  3.00490390146156075E-05
  3.04270093957035842E-05  3.08097340589138762E-05  3.11972728057537558E-05
  3.15896861899408926E-05  3.19870355268648876E-05  3.23893829031681138E-05
  3.27967911864466760E-05  3.32093240350737028E-05  3.36270459081461015E-05
  3.40500220755563836E-05  3.44783186281913135E-05  3.49120024882585689E-05
  3.53511414197436397E-05  3.57958040389980047E-05  3.62460598254605627E-05
  3.67019791325140605E-05  3.71636331984777712E-05  3.76310941577387409E-05
  3.81044350520229100E-05  3.85837298418080082E-05  3.90690534178801197E-05
  3.95604816130353893E-05  4.00580912139291185E-05  4.05619599730738453E-05
  4.10721666209882765E-05  4.15887908784992488E-05  4.21119134691980325E-05
  4.26416161320537364E-05  4.31779816341851147E-05  4.37210937837930792E-05
  4.42710374432560595E-05  4.48278985423896731E-05  4.53917640918736077E-05
  4.59627221968471566E-05  4.65408620706758019E-05  4.71262740488911537E-05
  4.77190496033057989E-05  4.83192813563061217E-05  4.89270630953247016E-05
  4.95424897874947696E-05  5.01656575944891479E-05  5.07966638875455029E-05
  5.14356072626808938E-05  5.20825875560976343E-05  5.27377058597828212E-05
  5.34010645373043328E-05  5.40727672398051221E-05  5.47529189221990150E-05
  5.54416258595701898E-05  5.61389956637787366E-05  5.68451373002754669E-05
  5.75601611051276967E-05  5.82841788022596733E-05  5.90173035209095719E-05
  5.97596498133061996E-05  6.05113336725681631E-05  6.12724725508277380E-05
  6.20431853775831862E-05  6.28235925782817098E-05  6.36138160931361458E-05
  6.44139793961784915E-05  6.52242075145527530E-05  6.60446270480508595E-05
  6.68753661888940533E-05  6.77165547417631731E-05  6.85683241440811762E-05
  6.94308074865500281E-05  7.03041395339467170E-05  7.11884567461804790E-05
  7.20838972996148129E-05  7.29906011086580927E-05  7.39087098476251357E-05
  7.48383669728743065E-05  7.57797177452228281E-05  7.67329092526440121E-05
  7.76980904332502984E-05  7.86754120985647874E-05  7.96650269570860220E-05
  8.06670896381490816E-05  8.16817567160864995E-05  8.27091867346936907E-05
  8.37495402320013327E-05  8.48029797653599809E-05  8.58696699368399720E-05
  8.69497774189507180E-05  8.80434709806839614E-05  8.91509215138837536E-05
  9.02723020599490534E-05  9.14077878368716422E-05  9.25575562666142615E-05
  9.37217870028334325E-05  9.49006619589502358E-05  9.60943653365750302E-05
  9.73030836542891842E-05  9.85270057767888784E-05  9.97663229443961259E-05
  1.01021228802939425E-04  1.02291919434012554E-04  1.03578593385611782E-04
  1.04881451703159686E-04  1.06200697960919386E-04  1.07536538293802282E-04
  1.08889181429578454E-04  1.10258838721489762E-04  1.11645724181274564E-04
  1.13050054512607898E-04  1.14472049144960722E-04  1.15911930267887755E-04
  1.17369922865743793E-04  1.18846254752838460E-04  1.20341156609033052E-04
  1.21854862015783572E-04  1.23387607492639827E-04  1.24939632534200817E-04
  1.26511179647536832E-04  1.28102494390082043E-04  1.29713825408001981E-04
  1.31345424475046851E-04  1.32997546531890315E-04  1.34670449725964866E-04
  1.36364395451798488E-04  1.38079648391856716E-04  1.39816476557901584E-04
  1.41575151332867420E-04  1.43355947513265750E-04  1.45159143352123233E-04
  1.46985020602457812E-04  1.48833864561304997E-04  1.50705964114294748E-04
  1.52601611780790860E-04  1.54521103759598427E-04  1.56464739975243743E-04
  1.58432824124840355E-04  1.60425663725540521E-04  1.62443570162586215E-04
  1.64486858737964130E-04  1.66555848719670668E-04  1.68650863391600300E-04
  1.70772230104057740E-04  1.72920280324907538E-04  1.75095349691367500E-04
  1.77297778062450684E-04  1.79527909572071379E-04  1.81786092682815115E-04
  1.84072680240387045E-04  1.86388029528745638E-04  1.88732502325927160E-04
  1.91106464960576520E-04  1.93510288369185121E-04  1.95944348154050978E-04
  1.98409024641968103E-04  2.00904702943651488E-04  2.03431773013913796E-04
  2.05990629712594675E-04  2.08581672866259158E-04  2.11205307330672069E-04
  2.13861943054055560E-04  2.16551995141146944E-04  2.19275883918057594E-04
  2.22034034997950524E-04  2.24826879347543964E-04  2.27654853354448939E-04
  2.30518398895358128E-04  2.33417963405088105E-04  2.36353999946492381E-04
  2.39326967281254706E-04  2.42337329941568771E-04  2.45385558302725539E-04
  2.48472128656607952E-04  2.51597523286113168E-04  2.54762230540511443E-04
  2.57966744911748973E-04  2.61211567111716708E-04  2.64497204150484643E-04
  2.67824169415524743E-04  2.71192982751928624E-04  2.74604170543633755E-04
  2.78058265795672987E-04  2.81555808217456784E-04  2.85097344307104093E-04
  2.88683427436834598E-04  2.92314617939432974E-04  2.95991483195803253E-04
  2.99714597723622195E-04  3.03484543267109436E-04  3.07301908887926405E-04
  3.11167291057217496E-04  3.15081293748811287E-04  3.19044528533591124E-04
  3.23057614675055342E-04  3.27121179226078519E-04  3.31235857126888815E-04
  3.35402291304280013E-04  3.39621132772068642E-04  3.43893040732817410E-04
  3.48218682680836577E-04  3.52598734506480947E-04  3.57033880601759787E-04
  3.61524813967273740E-04  3.66072236320497840E-04  3.70676858205426930E-04
  3.75339399103598401E-04  3.80060587546513873E-04  3.84841161229472831E-04
  3.89681867126839148E-04  3.94583461608758053E-04  3.99546710559339421E-04
  4.04572389496330061E-04  4.09661283692288377E-04  4.14814188297285753E-04
  4.20031908463150861E-04  4.25315259469274682E-04  4.30665066850001335E-04
  4.36082166523618208E-04  4.41567404922970231E-04  4.47121639127717632E-04
  4.52745736998254474E-04  4.58440577311315948E-04  4.64207049897286833E-04
  4.70046055779240553E-04  4.75958507313726143E-04  4.81945328333324404E-04
  4.88007454291000372E-04  4.94145832406268134E-04  5.00361421813196733E-04
  5.06655193710277047E-04  5.13028131512172363E-04  5.19481231003380509E-04
  5.26015500493825648E-04  5.32631960976409657E-04  5.39331646286544562E-04
  5.46115603263690316E-04  5.52984891914926968E-04  5.59940585580581945E-04
  5.66983771101941592E-04  5.74115548991073563E-04  5.81337033602782362E-04
  5.88649353308731238E-04  5.96053650673750916E-04  6.03551082634368879E-04
  6.11142820679582734E-04  6.18830051033907361E-04  6.26613974842725680E-04
  6.34495808359969351E-04  6.42476783138160664E-04  6.50558146220846819E-04
  6.58741160337450470E-04  6.67027104100576516E-04  6.75417272205795435E-04
  6.83912975633943271E-04  6.92515541855966013E-04  7.01226315040337240E-04
  7.10046656263089862E-04  7.18977943720484772E-04  7.28021572944357893E-04
  7.37178957020174380E-04  7.46451526807828127E-04  7.55840731165213146E-04
  7.65348037174612568E-04  7.74974930371933246E-04  7.84722914978822485E-04
  7.94593514137709200E-04  8.04588270149792797E-04  8.14708744716034967E-04
  8.24956519181176844E-04  8.35333194780827053E-04  8.45840392891661201E-04
  8.56479755284760133E-04  8.67252944382144206E-04  8.78161643516527633E-04
  8.89207557194343330E-04  9.00392411362078483E-04  9.11717953675951509E-04
  9.23185953774991038E-04  9.34798203557544224E-04  9.46556517461264141E-04
  9.58462732746622479E-04  9.70518709783980038E-04  9.82726332344277054E-04
  9.95087507893374894E-04  1.00760416789010161E-03  1.02027826808804862E-03
  1.03311178884115686E-03  1.04610673541315354E-03  1.05926513829087939E-03
  1.07258905350155398E-03  1.08608056293403826E-03  1.09974177466412907E-03
  1.11357482328395337E-03  1.12758187023550118E-03  1.14176510414835540E-03
  1.15612674118167327E-03  1.17066902537045861E-03  1.18539422897620279E-03
  1.20030465284192778E-03  1.21540262675169717E-03  1.23069050979465332E-03
  1.24617069073362416E-03  1.26184558837837634E-03  1.27771765196355719E-03
  1.29378936153139276E-03  1.31006322831920402E-03  1.32654179515178435E-03
  1.34322763683872759E-03  1.36012336057674465E-03  1.37723160635704295E-03
  1.39455504737783518E-03  1.41209639046202453E-03  1.42985837648015607E-03
  1.44784378077868225E-03  1.46605541361361467E-03  1.48449612058963840E-03
  1.50316878310473539E-03  1.52207631880041275E-03  1.54122168201759144E-03
  1.56060786425822498E-03  1.58023789465272860E-03  1.60011484043329254E-03
  1.62024180741313279E-03  1.64062194047178908E-03  1.66125842404651522E-03
  1.68215448262985377E-03  1.70331338127347452E-03  1.72473842609833735E-03
  1.74643296481128557E-03  1.76840038722813112E-03  1.79064412580331816E-03
  1.81316765616625682E-03  1.83597449766439015E-03  1.85906821391310247E-03
  1.88245241335254247E-03  1.90613074981144646E-03  1.93010692307806300E-03
  1.95438467947824362E-03  1.97896781246081942E-03  2.00386016319033331E-03
  2.02906562114722917E-03  2.05458812473559727E-03  2.08043166189854746E-03
  2.10660027074133964E-03  2.13309804016234778E-03  2.15992911049195033E-03
  2.18709767413947931E-03  2.21460797624827704E-03  2.24246431535901885E-03
  2.27067104408136457E-03  2.29923256977406214E-03  2.32815335523361370E-03
  2.35743791939158542E-03  2.38709083802070678E-03  2.41711674444984289E-03
  2.44752033028795965E-03  2.47830634615720446E-03  2.50947960243519006E-03
  2.54104497000663199E-03  2.57300738102443334E-03  2.60537182968034178E-03
  2.63814337298531052E-03  2.67132713155965231E-03  2.70492829043315810E-03
  2.73895209985526274E-03  2.77340387611540919E-03  2.80828900237373473E-03
  2.84361292950218976E-03  2.87938117693625501E-03  2.91559933353736315E-03
  2.95227305846616642E-03  2.98940808206680413E-03  3.02701020676226281E-03
  3.06508530796102815E-03  3.10363933497512668E-03  3.14267831194971594E-03
  3.18220833880437882E-03  3.22223559218623229E-03  3.26276632643505505E-03
  3.30380687456053278E-03  3.34536364923180467E-03  3.38744314377946746E-03
  3.43005193321015188E-03  3.47319667523389572E-03  3.51688411130441844E-03
  3.56112106767248523E-03  3.60591445645253635E-03  3.65127127670269872E-03
  3.69719861551841408E-03  3.74370364913981365E-03  3.79079364407301214E-03
  3.83847595822553022E-03  3.88675804205596085E-03  3.93564743973813351E-03
  3.98515179033990218E-03  4.03527882901676214E-03  4.08603638822049864E-03
  4.13743239892299872E-03  4.18947489185550297E-03  4.24217199876341256E-03
  4.29553195367689093E-03  4.34956309419746393E-03  4.40427386280075901E-03
  4.45967280815568173E-03  4.51576858646015374E-03  4.57256996279365845E-03
  4.63008581248681907E-03  4.68832512250816433E-03  4.74729699286837326E-03
  4.80701063804216816E-03  4.86747538840809173E-03  4.92870069170641464E-03
  4.99069611451533578E-03  5.05347134374579954E-03  5.11703618815509149E-03
  5.18140057987946916E-03  5.24657457598609947E-03  5.31256836004446575E-03
  5.37939224371759318E-03  5.44705666837326085E-03  5.51557220671547877E-03
  5.58494956443652060E-03  5.65519958188967324E-03  5.72633323578308935E-03
  5.79836164089491193E-03  5.87129605180997712E-03  5.94514786467838837E-03
  6.01992861899615199E-03  6.09564999940827475E-03  6.17232383753450135E-03
  6.24996211381802658E-03  6.32857695939748836E-03  6.40818065800244623E-03
  6.48878564787276190E-03  6.57040452370209402E-03  6.65305003860584051E-03
  6.73673510611386139E-03  6.82147280218820592E-03  6.90727636726628635E-03
  6.99415920832971612E-03  7.08213490099916798E-03  7.17121719165562336E-03
  7.26141999958822976E-03  7.35275741916924502E-03  7.44524372205630607E-03
  7.53889335942239860E-03  7.63372096421390499E-03  7.72974135343699412E-03
  7.82696953047284059E-03  7.92542068742191699E-03  8.02511020747778865E-03
  8.12605366733079940E-03  8.22826683960191547E-03  8.33176569530725934E-03
  8.43656640635360305E-03  8.54268534806526016E-03  8.65013910174278720E-03
  8.75894445725380714E-03  8.86911841565648368E-03  8.98067819185596923E-03
  9.09364121729425504E-03  9.20802514267390730E-03  9.32384784071597569E-03
  9.44112740895267089E-03  9.55988217255513903E-03  9.68013068719679286E-03
  9.80189174195270595E-03  9.92518436223540322E-03  1.00500278127676462E-02
  1.01764416005925718E-02  1.03044454781217147E-02  1.04340594462213800E-02
  1.05653037573377757E-02  1.06981989186615348E-02  1.08327656953319876E-02
  1.09690251136817588E-02  1.11069984645222088E-02  1.12467073064701027E-02
  1.13881734693162383E-02  1.15314190574363727E-02  1.16764664532450751E-02
  1.18233383206930633E-02  1.19720576088084285E-02  1.21226475552825112E-02
  1.22751316901008236E-02  1.24295338392196551E-02  1.25858781282889541E-02
  1.27441889864219702E-02  1.29044911500123677E-02  1.30668096665993456E-02
  1.32311698987813489E-02  1.33975975281790723E-02  1.35661185594481998E-02
  1.37367593243427205E-02  1.39095464858293247E-02  1.40845070422535214E-02
  1.42616683315582339E-02  1.44410580355553431E-02  1.46227041842510643E-02
  1.48066351602257010E-02  1.49928797030684409E-02  1.51814669138680535E-02
  1.53724262597598870E-02  1.55657875785302560E-02  1.57615810832786099E-02
  1.59598373671384006E-02  1.61605874080573593E-02  1.63638625736377968E-02
  1.65696946260379049E-02  1.67781157269346337E-02  1.69891584425490225E-02
  1.72028557487347890E-02  1.74192410361307774E-02  1.76383481153783821E-02
  1.78602112224045123E-02  1.80848650237710046E-02  1.83123446220914282E-02
  1.85426855615158023E-02  1.87759238332845559E-02  1.90120958813521715E-02
  1.92512386080816375E-02  1.94933893800105854E-02  1.97385860336897721E-02
  1.99868668815951847E-02  2.02382707181144421E-02  2.04928368256084674E-02
  2.07506049805495189E-02  2.10116154597362083E-02  2.12759090465869487E-02
  2.15435270375123923E-02  2.18145112483680709E-02  2.20889040209882974E-02
  2.23667482298020269E-02  2.26480872885321642E-02  2.29329651569790301E-02
  2.32214263478891306E-02  2.35135159339104650E-02  2.38092795546350974E-02
  2.41087634237304969E-02  2.44120143361605119E-02  2.47190796754971631E-02
  2.50300074213244891E-02  2.53448461567353407E-02  2.56636450759226767E-02
  2.59864539918662138E-02  2.63133233441158083E-02  2.66443042066728183E-02
  2.69794482959703763E-02  2.73188079789542966E-02  2.76624362812654713E-02
  2.80103868955252390E-02  2.83627141897250280E-02  2.87194732157213493E-02
  2.90807197178378531E-02  2.94465101415754514E-02  2.98169016424320379E-02
  3.01919520948332326E-02  3.05717201011752523E-02  3.09562650009817322E-02
  3.13456468801756247E-02  3.17399265804677241E-02  3.21391657088634375E-02
  3.25434266472887992E-02  3.29527725623379175E-02  3.33672674151428428E-02
  3.37869759713675805E-02  3.42119638113280097E-02  3.46422973402387424E-02
  3.50780437985891841E-02  3.55192712726499979E-02  3.59660487051116431E-02
  3.64184459058570012E-02  3.68765335628690391E-02  3.73403832532761687E-02
  3.78100674545362309E-02  3.82856595557612006E-02  3.87672338691846113E-02
  3.92548656417725586E-02  3.97486310669816836E-02  4.02486072966643030E-02
  4.07548724531233975E-02  4.12675056413197849E-02  4.17865869612319488E-02
  4.23121975203722828E-02  4.28444194464600789E-02  4.33833359002539568E-02
  4.39290310885464136E-02  4.44815902773206887E-02  4.50410998050742861E-02
  4.56076470963093436E-02  4.61813206751925873E-02  4.67622101793880446E-02
  4.73504063740624037E-02  4.79460011660678559E-02  4.85490876183024972E-02
  4.91597599642512872E-02  4.97781136227108956E-02  5.04042452126983176E-02
  5.10382525685484645E-02  5.16802347552006575E-02  5.23302920836775168E-02
  5.29885261267593610E-02  5.36550397348544011E-02  5.43299370520700445E-02
  5.50133235324852810E-02  5.57053059566278500E-02  5.64059924481595670E-02
  5.71154924907700881E-02  5.78339169452846621E-02  5.85613780669860667E-02
  5.92979895231543624E-02  6.00438664108284836E-02  6.07991252747893604E-02
  6.15638841257712191E-02  6.23382624589005341E-02  6.31223812723671063E-02
  6.39163630863310850E-02  6.47203319620660578E-02  6.55344135213446338E-02
  6.63587349660668263E-02  6.71934250981352510E-02  6.80386143395814574E-02
  6.88944347529437534E-02  6.97610200619030035E-02  7.06385056721769433E-02
  7.15270286926771998E-02  7.24267279569336814E-02  7.33377440447866291E-02
  7.42602193043533781E-02  7.51942978742701357E-02  7.61401257062136183E-02
  7.70978505877071146E-02  7.80676221652116115E-02  7.90495919675092279E-02
  8.00439134293795540E-02  8.10507419155736680E-02  8.20702347450912584E-02
  8.31025512157608226E-02  8.41478526291312978E-02  8.52063023156753585E-02
  8.62780656603096691E-02  8.73633101282376284E-02  8.84622052911150231E-02
  8.95749228535468872E-02  9.07016366799163892E-02  9.18425228215508788E-02
  9.29977595442314647E-02  9.41675273560460824E-02  9.53520090355954031E-02
  9.65513896605518646E-02  9.77658566365779691E-02  9.89955997266098731E-02
  1.00240811080507003E-01  1.01501685265076969E-01  1.02778419294476578E-01
  1.04071212660995074E-01  1.05380267366226563E-01  1.06705787952631664E-01
  1.08047981535498980E-01  1.09407057835306729E-01  1.10783229210491427E-01
  1.12176710690630704E-01  1.13587720010040485E-01  1.15016477641797829E-01
  1.16463206832189775E-01  1.17928133635595275E-01  1.19411486949808188E-01
  1.20913498551801363E-01  1.22434403133943687E-01  1.23974438340670595E-01
  1.25533844805616024E-01  1.27112866189213108E-01  1.28711749216765176E-01
  1.30330743716998432E-01  1.31970102661097682E-01  1.33630082202232769E-01
  1.35310941715584665E-01  1.37012943838871665E-01  1.38736354513388449E-01
  1.40481443025559538E-01  1.42248482049014829E-01  1.44037747687197321E-01
  1.45849519516502740E-01  1.47684080629965769E-01  1.49541717681493103E-01
  1.51422720930652871E-01  1.53327384288030250E-01  1.55256005361149363E-01
  1.57208885500976975E-01  1.59186329849008296E-01  1.61188647384945372E-01
  1.63216150974977492E-01  1.65269157420664975E-01  1.67347987508442181E-01
  1.69452966059739973E-01  1.71584421981739066E-01  1.73742688318764327E-01
  1.75928102304321321E-01  1.78141005413791853E-01  1.80381743417789314E-01
  1.82650666436184966E-01  1.84948128992817318E-01  1.87274490070884342E-01
  1.89630113169038161E-01  1.92015366358179784E-01  1.94430622338973152E-01
  1.96876258500079532E-01  1.99352656977124065E-01  2.01860204712407731E-01
  2.04399293515365149E-01  2.06970320123787910E-01  2.09573686265814768E-01
  2.12209798722701293E-01  2.14879069392382827E-01  2.17581915353831368E-01
  2.20318758932227771E-01  2.23090027764949739E-01  2.25896154868389792E-01
  2.28737578705617728E-01  2.31614743254888206E-01  2.34528098079016117E-01
  2.37478098395620396E-01  2.40465205148251565E-01  2.43489885078417817E-01
  2.46552610798511124E-01  2.49653860865656940E-01  2.52794119856488142E-01
  2.55973878442860125E-01  2.59193633468522144E-01  2.62453888026746684E-01
  2.65755151538942025E-01  2.69097939834248845E-01  2.72482775230138252E-01
  2.75910186614028441E-01  2.79380709525920146E-01  2.82894886242079813E-01
  2.86453265859769379E-01  2.90056404383042754E-01  2.93704864809625821E-01
  2.97399217218882073E-01  3.01140038860892134E-01  3.04927914246648946E-01
  3.08763435239386930E-01  3.12647201147065679E-01  3.16579818816008829E-01
  3.20561902725728598E-01  3.24594075084938039E-01  3.28676965928770715E-01
  3.32811213217228841E-01  3.36997462934861269E-01  3.41236369191703914E-01
  3.45528594325484162E-01  3.49874809005110532E-01  3.54275692335470405E-01
  3.58731931963536532E-01  3.63244224185817755E-01  3.67813274057154804E-01
  3.72439795500884518E-01  3.77124511420396547E-01  3.81868153812083222E-01
  3.86671463879719679E-01  3.91535192150277322E-01  3.96460098591192300E-01
  4.01446952729117179E-01  4.06496533770155433E-01  4.11609630721618880E-01
  4.16787042515309569E-01  4.22029578132352479E-01  4.27338056729605065E-01
  4.32713307767646993E-01  4.38156171140389572E-01  4.43667497306309389E-01
  4.49248147421331012E-01  4.54898993473390467E-01  4.60620918418678471E-01
  4.66414816319610015E-01  4.72281592484520618E-01  4.78222163609120454E-01
  4.84237457919735603E-01  4.90328415318338706E-01  4.96495987529416039E-01
  5.02741138248674835E-01  5.09064843293618785E-01  5.15468090756028730E-01
  5.21951881156346387E-01  5.28517227600014072E-01  5.35165155935771852E-01
  5.41896704915945548E-01  5.48712926358760900E-01  5.55614885312683882E-01
  5.62603660222844137E-01  5.69680343099541298E-01  5.76846039688870493E-01
  5.84101869645504479E-01  5.91448966707633916E-01  5.98888478874123664E-01
  6.06421568583886739E-01  6.14049412897514246E-01  6.21773203681201259E-01
  6.29594147792969849E-01  6.37513467271250245E-01  6.45532399525824196E-01
  6.53652197531168655E-01  6.61874130022244378E-01  6.70199481692728249E-01
  6.78629553395757923E-01  6.87165662347189565E-01  6.95809142331411112E-01
  7.04561343909757887E-01  7.13423634631530468E-01  7.22397399247685978E-01
  7.31484039927204122E-01  7.40684976476175372E-01  7.50001646559657620E-01
  7.59435505926303711E-01  7.68988028635834264E-01  7.78660707289358989E-01
  7.88455053262593686E-01  7.98372596942026336E-01  8.08414887964031492E-01
  8.18583495457013921E-01  8.28880008286583925E-01  8.39306035303816755E-01
  8.49863205596648741E-01  8.60553168744413677E-01  8.71377595075603972E-01
  8.82338175928857993E-01  8.93436623917230222E-01  9.04674673195802082E-01
  9.16054079732633975E-01  9.27576621583150684E-01  9.39244099167960700E-01
  9.51058335554171075E-01  9.63021176740256668E-01  9.75134491944487980E-01
  9.87400173897012068E-01  9.99820139135590646E-01  1.01239632830505744E+00
  1.02513070646055970E+00  1.03802526337458945E+00  1.05108201384790023E+00
  1.06430299802431949E+00  1.07769028170951953E+00  1.09124595669381641E+00
  1.10497214107900210E+00  1.11887097960931459E+00  1.13294464400655359E+00
  1.14719533330941048E+00  1.16162527421708606E+00  1.17623672143720115E+00
  1.19103195803811279E+00  1.20601329580564309E+00  1.22118307560429429E+00
  1.23654366774302704E+00  1.25209747234561020E+00  1.26784691972565922E+00
  1.28379447076637243E+00  1.29994261730504057E+00  1.31629388252241908E+00
  1.33285082133695987E+00  1.34961602080404042E+00  1.36659210052018931E+00
  1.38378171303239528E+00  1.40118754425259073E+00  1.41881231387731166E+00
  1.43665877581267165E+00  1.45472971860465994E+00  1.47302796587484819E+00
  1.49155637676160602E+00  1.51031784636682476E+00  1.52931530620830425E+00
  1.54855172467779734E+00  1.56803010750482175E+00  1.58775349822632861E+00
  1.60772497866224007E+00  1.62794766939700941E+00  1.64842473026720993E+00
  1.66915936085525818E+00  1.69015480098937410E+00  1.71141433124978826E+00
  1.73294127348135985E+00  1.75473899131261191E+00  1.77681089068129827E+00
  1.79916042036660606E+00  1.82179107252801376E+00  1.84470638325096625E+00
  1.86790993309938957E+00  1.89140534767514823E+00  1.91519629818457915E+00
  1.93928650201209463E+00  1.96367972330105856E+00  1.98837977354192952E+00
  2.01339051216780307E+00  2.03871584715748089E+00  2.06435973564607300E+00
  2.09032618454333230E+00  2.11661925115973215E+00  2.14324304384041708E+00
  2.17020172260716793E+00  2.19749949980838188E+00  2.22514064077728824E+00
  2.25312946449840412E+00  2.28147034428237117E+00  2.31016770844932351E+00
  2.33922604102079035E+00  2.36864988242035857E+00  2.39844383018311458E+00
  2.42861253967400481E+00  2.45916072481527381E+00  2.49009315882299243E+00
  2.52141467495291094E+00  2.55313016725565323E+00  2.58524459134140816E+00
  2.61776296515428619E+00  2.65069036975634509E+00  2.68403195012154905E+00
  2.71779291593967054E+00  2.75197854243029516E+00  2.78659417116712316E+00
  2.82164521091256093E+00  2.85713713846288586E+00  2.89307549950399112E+00
  2.92946590947789609E+00  2.96631405446020757E+00  3.00362569204853624E+00
  3.04140665226217033E+00  3.07966283845301669E+00  3.11840022822798835E+00
  3.15762487438306039E+00  3.19734290584898728E+00  3.23756052864899768E+00
  3.27828402686848275E+00  3.31951976363688184E+00  3.36127418212196982E+00
  3.40355380653657447E+00  3.44636524315803339E+00  3.48971518136042702E+00
  3.53361039465978299E+00  3.57805774177249702E+00  3.62306416768697126E+00
  3.66863670474882797E+00  3.71478247375970794E+00  3.76150868508988934E+00
  3.80882263980497182E+00  3.85673173080662757E+00  3.90524344398780254E+00
  3.95436535940238798E+00  4.00410515244959075E+00  4.05447059507328689E+00
  4.10546955697634086E+00  4.15711000685031440E+00  4.20940001362057181E+00
  4.26234774770704039E+00  4.31596148230091003E+00  4.37024959465727303E+00
  4.42522056740414360E+00  4.48088298986785993E+00  4.53724555941516261E+00
  4.59431708281223017E+00  4.65210647760068863E+00  4.71062277349105685E+00
  4.76987511377362772E+00  4.82987275674710403E+00  4.89062507716528305E+00
  4.95214156770181368E+00  5.01443184043350865E+00  5.07750562834222130E+00
  5.14137278683561849E+00  5.20604329528717269E+00  5.27152725859538229E+00
  5.33783490876275390E+00  5.40497660649453859E+00  5.47296284281758894E+00
  5.54180424071966815E+00  5.61151155680923885E+00  5.68209568299626877E+00
  5.75356764819409250E+00  5.82593862004265883E+00  5.89921990665358198E+00
  5.97342295837696557E+00  6.04855936959061857E+00  6.12464088051167099E+00
  6.20167937903097055E+00  6.27968690257066964E+00  6.35867563996500706E+00
  6.43865793336491521E+00  6.51964628016647296E+00  6.60165333496362017E+00
  6.68469191152553410E+00  6.76877498479872308E+00  6.85391569293446778E+00
  6.94012733934164494E+00  7.02742339476538103E+00  7.11581749939196495E+00
  7.20532346498005971E+00  7.29595527701890134E+00  7.38772709691352691E+00
  7.48065326419748100E+00  7.57474829877348466E+00  7.67002690318210512E+00
  7.76650396489913764E+00  7.86419455866177497E+00  7.96311394882401657E+00
  8.06327759174185665E+00  8.16470113818825993E+00  8.26740043579871653E+00
  8.37139153154743987E+00  8.47669067425468015E+00  8.58331431712574755E+00
  8.69127912032174166E+00  8.80060195356282904E+00  8.91129989876414186E+00
  9.02339025270480022E+00  9.13689052973069060E+00  9.25181846449098266E+00
  9.36819201470932050E+00  9.48602936398970975E+00  9.60534892465768309E+00
  9.72616934063738547E+00  9.84850949036458800E+00  9.97238848973661085E+00
  1.00978256950991536E+01  1.02248407062707223E+01  1.03534533696052655E+01
  1.04836837810930561E+01  1.06155522895008634E+01  1.07490794995514314E+01
  1.08842862751429568E+01  1.10211937426092472E+01  1.11598232940205921E+01
  1.13001965905264647E+01  1.14423355657400556E+01  1.15862624291653855E+01
  1.17319996696677293E+01  1.18795700589873743E+01  1.20289966552979095E+01
  1.21803028068090384E+01  1.23335121554147324E+01  1.24886486403874528E+01
  1.26457365021185684E+01  1.28048002859060883E+01  1.29658648457898735E+01
  1.31289553484350474E+01  1.32940972770645036E+01  1.34613164354405299E+01