<UPF version="2.0.1">
   <PP_INFO>
         UPF file from ATOMPAW code with following input
           Yb  70
           GGA-PBESOL  loggrid 2001 scalarrelativistic logderivrange -8 8 500
           6 5 5 4 0
           5 2 1
           4 3 13
           0 0 0
           c
           c
           c
           c
           v
           v
           c
           c
           c
           v
           c
           c
           v
           v
           3
           2.400 2.0000 2.400 2.400
           n
           y
           2.0
           n
           y
           2.0
           n
           y
           2.0
           n
           VANDERBILT BESSELSHAPE
           4 0.0
           2.360
           2.360
           2.360
           2.360
           2.360
           2.360
           2.360
           2.360
           PWSCFOUT
           UPFDX  0.0125d0  UPFXMIN  -7.d0  UPFZMESH  70.0
           END
  </PP_INFO>
  <!--                               -->
  <!-- END OF HUMAN READABLE SECTION -->
  <PP_HEADER generated="Generated using ATOMPAW code"
             author="   "
             date=" 11/23/2022, 16:03:23.863"
             element="Yb"
             pseudo_type="PAW"
             relativistic="scalar"
             is_ultrasoft="T"
             is_paw="T"
             is_coulomb="F"
             has_so="F"
             has_wfc="T"
             has_gipaw="T"
             paw_as_gipaw="T"
             core_correction="T"
             functional="SLA PW PSX PSC"
             z_valence="24.000"
             l_max="3"
             l_max_rho="6"
             mesh_size="  1117"
             number_of_wfc="     8"
             number_of_proj=" 8"
                                    /> 
<PP_MESH dx=" 1.2500000000000E-02" mesh="  1117" xmin="-7.0000000000000E+00" zmesh=" 7.0000000000000E+01">
 <PP_R type="real" size="  1117" columns="3">
  1.30268852222073754E-05  1.31907432667003173E-05  1.33566623916654596E-05
  1.35246685223036277E-05  1.36947879099145701E-05  1.38670471359986984E-05
  1.40414731164105523E-05  1.42180931055644468E-05  1.43969347006930070E-05
  1.45780258461593514E-05  1.47613948378233859E-05  1.49470703274631212E-05
  1.51350813272515737E-05  1.53254572142899538E-05  1.55182277351979680E-05
  1.57134230107616897E-05  1.59110735406400462E-05  1.61112102081304623E-05
  1.63138642849943940E-05  1.65190674363436819E-05  1.67268517255882059E-05
  1.69372496194458992E-05  1.71502939930157265E-05  1.73660181349144951E-05
  1.75844557524783012E-05  1.78056409770292795E-05  1.80296083692087795E-05
  1.82563929243774925E-05  1.84860300780835435E-05  1.87185557115994306E-05
  1.89540061575284515E-05  1.91924182054818128E-05  1.94338291078270565E-05
  1.96782765855088163E-05  1.99257988339428385E-05  2.01764345289840240E-05
  2.04302228329696353E-05  2.06872034008385071E-05  2.09474163863271863E-05
  2.12109024482440989E-05  2.14777027568224627E-05  2.17478590001533097E-05
  2.20214133906992912E-05  2.22984086718904591E-05  2.25788881248031004E-05
  2.28628955749223464E-05  2.31504753989900955E-05  2.34416725319389436E-05
  2.37365324739133413E-05  2.40351012973791586E-05  2.43374256543224860E-05
  2.46435527835391756E-05  2.49535305180159954E-05  2.52674072924045797E-05
  2.55852321505895673E-05  2.59070547533516442E-05  2.62329253861272459E-05
  2.65628949668657303E-05  2.68970150539853920E-05  2.72353378544296636E-05
  2.75779162318244197E-05  2.79248037147381024E-05  2.82760545050456676E-05
  2.86317234863977011E-05  2.89918662327962005E-05  2.93565390172779840E-05
  2.97257988207075635E-05  3.00997033406804875E-05  3.04783110005386885E-05
  3.08616809584993473E-05  3.12498731168983597E-05  3.16429481315502403E-05
  3.20409674212257612E-05  3.24439931772486684E-05  3.28520883732133729E-05
  3.32653167748244848E-05  3.36837429498604692E-05  3.41074322782624787E-05
  3.45364509623500527E-05  3.49708660371654691E-05  3.54107453809479784E-05
  3.58561577257399770E-05  3.63071726681265448E-05  3.67638606801100001E-05
  3.72262931201214020E-05  3.76945422441703096E-05  3.81686812171350061E-05
  3.86487841241946656E-05  3.91349259824052637E-05  3.96271827524212675E-05
  4.01256313503644711E-05  4.06303496598423966E-05  4.11414165441177591E-05
  4.16589118584309668E-05  4.21829164624778100E-05  4.27135122330437171E-05
  4.32507820767973603E-05  4.37948099432448998E-05  4.43456808378472645E-05
  4.49034808353025776E-05  4.54682970929952440E-05  4.60402178646146610E-05
  4.66193325139449761E-05  4.72057315288283163E-05  4.77995065353038892E-05
  4.84007503119244524E-05  4.90095568042533505E-05  4.96260211395436226E-05
  5.02502396416018319E-05  5.08823098458389936E-05  5.15223305145104331E-05
  5.21704016521477631E-05  5.28266245211847450E-05  5.34911016577797215E-05
  5.41639368878372518E-05  5.48452353432309067E-05  5.55351034782304359E-05
  5.62336490861354755E-05  5.69409813161184325E-05  5.76572106902794053E-05
  5.83824491209152400E-05  5.91168099280062418E-05  5.98604078569225646E-05
  6.06133590963534326E-05  6.13757812964620033E-05  6.21477935872681244E-05
  6.29295165972629396E-05  6.37210724722571674E-05  6.45225848944666575E-05
  6.53341791018381864E-05  6.61559819076178016E-05  6.69881217201658778E-05
  6.78307285630211034E-05  6.86839340952169399E-05  6.95478716318537605E-05
  7.04226761649293158E-05  7.13084843844316693E-05  7.22054346996973441E-05
  7.31136672610378758E-05  7.40333239816389215E-05  7.49645485597340641E-05
  7.59074865010582196E-05  7.68622851415831529E-05  7.78290936705389256E-05
  7.88080631537253133E-05  7.97993465571157135E-05  8.08030987707586808E-05
  8.18194766329797857E-05  8.28486389548877282E-05  8.38907465451893129E-05
  8.49459622353156314E-05  8.60144509048651291E-05  8.70963795073662549E-05
  8.81919170963643006E-05  8.93012348518365908E-05  9.04245061069392490E-05
  9.15619063750911915E-05  9.27136133773983842E-05  9.38798070704230386E-05
  9.50606696743024765E-05  9.62563857012209564E-05  9.74671419842403850E-05
  9.86931277064933144E-05  9.99345344307430095E-05  1.01191556129316074E-04
  1.02464389214409983E-04  1.03753232568784158E-04  1.05058287576834805E-04
  1.06379758156061971E-04  1.07717850788932522E-04  1.09072774555142303E-04
  1.10444741164286725E-04  1.11833964988939625E-04  1.13240663098149923E-04
  1.14665055291359437E-04  1.16107364132745866E-04  1.17567814986000433E-04
  1.19046636049540129E-04  1.20544058392164723E-04  1.22060315989162089E-04
  1.23595645758866192E-04  1.25150287599677532E-04  1.26724484427546540E-04
  1.28318482213930231E-04  1.29932530024226062E-04  1.31566880056687715E-04
  1.33221787681833242E-04  1.34897511482345877E-04  1.36594313293478644E-04
  1.38312458243967023E-04  1.40052214797454691E-04  1.41813854794443011E-04
  1.43597653494765518E-04  1.45403889620598112E-04  1.47232845400010700E-04
  1.49084806611064357E-04  1.50960062626466490E-04  1.52858906458784680E-04
  1.54781634806230742E-04  1.56728548099021242E-04  1.58699950546318651E-04
  1.60696150183766649E-04  1.62717458921619667E-04  1.64764192593480304E-04
  1.66836671005649332E-04  1.68935217987094543E-04  1.71060161440051735E-04
  1.73211833391258556E-04  1.75390570043834794E-04  1.77596711829815603E-04
  1.79830603463342845E-04  1.82092593994529552E-04  1.84383036863998168E-04
  1.86702289958106857E-04  1.89050715664870587E-04  1.91428680930583265E-04
  1.93836557317156202E-04  1.96274721060173482E-04  1.98743553127680273E-04
  2.01243439279710518E-04  2.03774770128560794E-04  2.06337941199826857E-04
  2.08933352994203163E-04  2.11561411050062859E-04  2.14222526006824519E-04
  2.16917113669113520E-04  2.19645595071734756E-04  2.22408396545458419E-04
  2.25205949783635525E-04  2.28038691909651740E-04  2.30907065545226775E-04
  2.33811518879577544E-04  2.36752505739446509E-04  2.39730485660013707E-04
  2.42745923956701182E-04  2.45799291797876927E-04  2.48891066278478798E-04
  2.52021730494559487E-04  2.55191773618771898E-04  2.58401690976804482E-04
  2.61651984124773975E-04  2.64943160927598356E-04  2.68275735638348687E-04
  2.71650228978603673E-04  2.75067168219813283E-04  2.78527087265685656E-04
  2.82030526735611137E-04  2.85578034049134696E-04  2.89170163511491291E-04
  2.92807476400217957E-04  2.96490541052853455E-04  3.00219932955743320E-04
  3.03996234833959632E-04  3.07820036742353887E-04  3.11691936157753918E-04
  3.15612538072320640E-04  3.19582455088080017E-04  3.23602307512642449E-04
  3.27672723456127568E-04  3.31794338929308232E-04  3.35967797942987242E-04
  3.40193752608626868E-04  3.44472863240241080E-04  3.48805798457571916E-04
  3.53193235290562822E-04  3.57635859285144965E-04  3.62134364610356351E-04
  3.66689454166806226E-04  3.71301839696504970E-04  3.75972241894075921E-04
  3.80701390519364079E-04  3.85490024511464090E-04  3.90338892104179539E-04
  3.95248750942936856E-04  4.00220368203168869E-04  4.05254520710187174E-04
  4.10351995060563341E-04  4.15513587745035371E-04  4.20740105272961260E-04
  4.26032364298338691E-04  4.31391191747407168E-04  4.36817424947858520E-04
  4.42311911759669908E-04  4.47875510707584109E-04  4.53509091115256451E-04
  4.59213533241086685E-04  4.64989728415763325E-04  4.70838579181533795E-04
  4.76760999433229707E-04  4.82757914561065117E-04  4.88830261595228979E-04
  4.94978989352300365E-04  5.01205058583500582E-04  5.07509442124813820E-04
  5.13893125048995214E-04  5.20357104819489072E-04  5.26902391446285967E-04
  5.33530007643737473E-04  5.40240988990358349E-04  5.47036384090637969E-04
  5.53917254738885818E-04  5.60884676085140229E-04  5.67939736803161721E-04
  5.75083539260540732E-04  5.82317199690946126E-04  5.89641848368536461E-04
  5.97058629784570226E-04  6.04568702826233074E-04  6.12173240957716923E-04
  6.19873432403576763E-04  6.27670480334391713E-04  6.35565603054764590E-04
  6.43560034193683202E-04  6.51655022897277181E-04  6.59851834024001698E-04
  6.68151748342271147E-04  6.76556062730584648E-04  6.85066090380163873E-04
  6.93683161000142531E-04  7.02408621025336910E-04  7.11243833826627828E-04
  7.20190179923991072E-04  7.29249057202205927E-04  7.38421881129277245E-04
  7.47710084977605419E-04  7.57115120047940058E-04  7.66638455896144770E-04
  7.76281580562821318E-04  7.86046000805817966E-04  7.95933242335662792E-04
  8.05944850053962178E-04  8.16082388294789860E-04  8.26347441069121176E-04
  8.36741612312336472E-04  8.47266526134838878E-04  8.57923827075827766E-04
  8.68715180360256725E-04  8.79642272159031889E-04  8.90706809852477945E-04
  9.01910522297119633E-04  9.13255160095822419E-04  9.24742495871322184E-04
  9.36374324543205153E-04  9.48152463608366281E-04  9.60078753424996496E-04
  9.72155057500145641E-04  9.84383262780893966E-04  9.96765279949195270E-04
  1.00930304372042314E-03  1.02199851314567448E-03  1.03485367191787797E-03
  1.04787052868174466E-03  1.06105111734762720E-03  1.07439749740932049E-03
  1.08791175426586179E-03  1.10159599954738163E-03  1.11545237144504536E-03
  1.12948303504515268E-03  1.14369018266743689E-03  1.15807603420761771E-03
  1.17264283748426856E-03  1.18739286859003671E-03  1.20232843224729147E-03
  1.21745186216824113E-03  1.23276552141957855E-03  1.24827180279171984E-03
  1.26397312917267586E-03  1.27987195392663877E-03  1.29597076127732224E-03
  1.31227206669612710E-03  1.32877841729519284E-03  1.34549239222538130E-03
  1.36241660307928072E-03  1.37955369429926950E-03  1.39690634359071497E-03
  1.41447726234037569E-03  1.43226919604005345E-03  1.45028492471558691E-03
  1.46852726336123480E-03  1.48699906237952355E-03  1.50570320802663341E-03
  1.52464262286337447E-03  1.54382026621184727E-03  1.56323913461784260E-03
  1.58290226231905663E-03  1.60281272171919624E-03  1.62297362386805378E-03
  1.64338811894760607E-03  1.66405939676424306E-03  1.68499068724717966E-03
  1.70618526095313739E-03  1.72764642957738126E-03  1.74937754647117071E-03
  1.77138200716573258E-03  1.79366324990281874E-03  1.81622475617193688E-03
  1.83907005125434619E-03  1.86220270477388148E-03  1.88562633125471837E-03
  1.90934459068615005E-03  1.93336118909446728E-03  1.95767987912203551E-03
  1.98230446061364689E-03  2.00723878121025984E-03  2.03248673695019533E-03
  2.05805227287790375E-03  2.08393938366039158E-03  2.11015211421138353E-03
  2.13669456032335864E-03  2.16357086930752405E-03  2.19078524064183523E-03
  2.21834192662718598E-03  2.24624523305182395E-03  2.27449951986414796E-03
  2.30310920185395522E-03  2.33207874934226317E-03  2.36141268887980803E-03
  2.39111560395432240E-03  2.42119213570671709E-03  2.45164698365626932E-03
  2.48248490643493067E-03  2.51371072253087861E-03  2.54532931104140686E-03
  2.57734561243529820E-03  2.60976462932478248E-03  2.64259142724720389E-03
  2.67583113545652928E-03  2.70948894772479049E-03  2.74357012315363169E-03
  2.77807998699605230E-03  2.81302393148848660E-03  2.84840741669335979E-03
  2.88423597135222106E-03  2.92051519374962988E-03  2.95725075258789676E-03
  2.99444838787282569E-03  3.03211391181061564E-03  3.07025320971600953E-03
  3.10887224093190024E-03  3.14797703976048542E-03  3.18757371640614011E-03
  3.22766845793015554E-03  3.26826752921746460E-03  3.30937727395555579E-03
  3.35100411562568295E-03  3.39315455850654462E-03  3.43583518869060257E-03
  3.47905267511315402E-03  3.52281377059438005E-03  3.56712531289448158E-03
  3.61199422578209256E-03  3.65742752011614415E-03  3.70343229494130878E-03
  3.75001573859724867E-03  3.79718512984181071E-03  3.84494783898834064E-03
  3.89331132905732348E-03  3.94228315694247419E-03  3.99187097459153487E-03
  4.04208253020190041E-03  4.09292566943128718E-03  4.14440833662364783E-03
  4.19653857605047087E-03  4.24932453316772488E-03  4.30277445588860431E-03
  4.35689669587227546E-03  4.41169970982885611E-03  4.46719206084076996E-03
  4.52338241970076226E-03  4.58027956626672669E-03  4.63789239083356800E-03
  4.69622989552234520E-03  4.75530119568685211E-03  4.81511552133792164E-03
  4.87568221858562800E-03  4.93701075109963597E-03  4.99911070158793464E-03
  5.06199177329412584E-03  5.12566379151359677E-03  5.19013670512873549E-03
  5.25542058816346174E-03  5.32152564135732892E-03  5.38846219375938625E-03
  5.45624070434212998E-03  5.52487176363573602E-03  5.59436609538284304E-03
  5.66473455821418521E-03  5.73598814734524020E-03  5.80813799629427592E-03
  5.88119537862198238E-03  5.95517170969297668E-03  6.03007854845950819E-03
  6.10592759926752594E-03  6.18273071368553601E-03  6.26049989235642236E-03
  6.33924728687256921E-03  6.41898520167459574E-03  6.49972609597391018E-03
  6.58148258569951541E-03  6.66426744546926714E-03  6.74809361058592398E-03
  6.83297417905834488E-03  6.91892241364803779E-03  7.00595174394151934E-03
  7.09407576844871268E-03  7.18330825672772698E-03  7.27366315153641849E-03
  7.36515457101091873E-03  7.45779681087166239E-03  7.55160434665711009E-03
  7.64659183598557536E-03  7.74277412084553151E-03  7.84016622991466627E-03
  7.93878338090816746E-03  8.03864098295651620E-03  8.13975463901318516E-03
  8.24214014829266831E-03  8.34581350873908612E-03  8.45079091952593425E-03
  8.55708878358722551E-03  8.66472371018047784E-03  8.77371251748196995E-03
  8.88407223521457678E-03  8.99582010730871906E-03  9.10897359459676877E-03
  9.22355037754131468E-03  9.33956835899782054E-03  9.45704566701191691E-03
  9.57600065765199480E-03  9.69645191787735401E-03  9.81841826844245986E-03
  9.94191876683774532E-03  1.00669727102673384E-02  1.01935996386643274E-02
  1.03218193377438948E-02  1.04516518420948827E-02  1.05831174383102574E-02
  1.07162366681568862E-02  1.08510303317852705E-02  1.09875194909795863E-02
  1.11257254724486405E-02  1.12656698711582400E-02  1.14073745537053902E-02
  1.15508616617350408E-02  1.16961536153997493E-02  1.18432731168628628E-02
  1.19922431538458212E-02  1.21430870032199784E-02  1.22958282346436899E-02
  1.24504907142451212E-02  1.26070986083513630E-02  1.27656763872645105E-02
  1.29262488290851404E-02  1.30888410235839737E-02  1.32534783761221932E-02
  1.34201866116210825E-02  1.35889917785816296E-02  1.37599202531546016E-02
  1.39329987432619019E-02  1.41082542927697448E-02  1.42857142857142853E-02
  1.44654064505804949E-02  1.46473588646347051E-02  1.48315999583117936E-02
  1.50181585196574961E-02  1.52070636988265624E-02  1.53983450126375966E-02
  1.55920323491850286E-02  1.57881559725092588E-02  1.59867465273254468E-02
  1.61878350438118060E-02  1.63914529424581783E-02  1.65976320389754801E-02
  1.68064045492670178E-02  1.70178030944622694E-02  1.72318607060140093E-02
  1.74486108308595719E-02  1.76680873366469315E-02  1.78903245170266428E-02
  1.81153570970102908E-02  1.83432202383963065E-02  1.85739495452641630E-02
  1.88075810695374560E-02  1.90441513166171930E-02  1.92836972510857727E-02
  1.95262563024828049E-02  1.97718663711535965E-02  2.00205658341710557E-02
  2.02723935513322573E-02  2.05273888712303627E-02  2.07855916374028761E-02
  2.10470421945573687E-02  2.13117813948752975E-02  2.15798506043953335E-02
  2.18512917094768541E-02  2.21261471233447603E-02  2.24044597927167029E-02
  2.26862732045134859E-02  2.29716313926540544E-02  2.32605789449358731E-02
  2.35531610100018322E-02  2.38494233043948997E-02  2.41494121197013134E-02
  2.44531743297837917E-02  2.47607573981056643E-02  2.50722093851471206E-02
  2.53875789559148378E-02  2.57069153875458464E-02  2.60302685770072845E-02
  2.63576890488928725E-02  2.66892279633174634E-02  2.70249371239110019E-02
  2.73648689859128103E-02  2.77090766643679313E-02  2.80576139424264064E-02
  2.84105352797470283E-02  2.87678958210068163E-02  2.91297514045173664E-02
  2.94961585709498236E-02  2.98671745721693846E-02  3.02428573801810686E-02
  3.06232656961879929E-02  3.10084589597634692E-02  3.13984973581386134E-02
  3.17934418356067006E-02  3.21933541030458362E-02  3.25982966475614894E-02
  3.30083327422500683E-02  3.34235264560856019E-02  3.38439426639305929E-02
  3.42696470566728265E-02  3.47007061514898393E-02  3.51371873022421552E-02
  3.55791587099976020E-02  3.60266894336878502E-02  3.64798494008989546E-02
  3.69387094187978091E-02  3.74033411851957404E-02  3.78738172997515402E-02
  3.83502112753153143E-02  3.88325975494149267E-02  3.93210514958872437E-02
  3.98156494366550193E-02  4.03164686536528483E-02  4.08235874009023683E-02
  4.13370849167394444E-02  4.18570414361957854E-02  4.23835382035352634E-02
  4.29166574849490293E-02  4.34564825814095085E-02  4.40030978416861562E-02
  4.45565886755256504E-02  4.51170415669966962E-02  4.56845440880039241E-02
  4.62591849119709034E-02  4.68410538276953364E-02  4.74302417533793014E-02
  4.80268407508347220E-02  4.86309440398688259E-02  4.92426460128496737E-02
  4.98620422494548757E-02  5.04892295316067621E-02  5.11243058585940033E-02
  5.17673704623848666E-02  5.24185238231320919E-02  5.30778676848729161E-02
  5.37455050714273491E-02  5.44215403024951791E-02  5.51060790099567599E-02
  5.57992281543779264E-02  5.65010960417225289E-02  5.72117923402761311E-02
  5.79314280977810889E-02  5.86601157587887320E-02  5.93979691822287270E-02
  6.01451036591994295E-02  6.09016359309831751E-02  6.16676842072863482E-02
  6.24433681847108082E-02  6.32288090654562485E-02  6.40241295762580681E-02
  6.48294539875643866E-02  6.56449081329527201E-02  6.64706194287924129E-02
  6.73067168941534899E-02  6.81533311709657530E-02  6.90105945444326185E-02
  6.98786409637000838E-02  7.07576060627873316E-02  7.16476271817794719E-02
  7.25488433882868766E-02  7.34613954991755885E-02  7.43854261025692909E-02
  7.53210795801298599E-02  7.62685021296168469E-02  7.72278417877309553E-02
  7.81992484532457871E-02  7.91828739104289137E-02  8.01788718527593480E-02
  8.11873979069421131E-02  8.22086096572247210E-02  8.32426666700211426E-02
  8.42897305188431145E-02  8.53499648095474572E-02  8.64235352058992934E-02
  8.75106094554569530E-02  8.86113574157838813E-02  8.97259510809880895E-02
  9.08545646085975600E-02  9.19973743467723398E-02  9.31545588618587495E-02
  9.43262989662919243E-02  9.55127777468467443E-02  9.67141805932467680E-02
  9.79306952271311870E-02  9.91625117313862242E-02  1.00409822579847152E-01
  1.01672822667371390E-01  1.02951709340292366E-01  1.04246682427254808E-01
  1.05557944270437867E-01  1.06885699757172659E-01  1.08230156351954987E-01
  1.09591524128863249E-01  1.10970015804382538E-01  1.12365846770641306E-01
  1.13779235129068290E-01  1.15210401724469641E-01  1.16659570179537805E-01
  1.18126966929792479E-01  1.19612821258960930E-01  1.21117365334805452E-01
  1.22640834245398525E-01  1.24183466035857171E-01  1.25745501745537336E-01
  1.27327185445696239E-01  1.28928764277630448E-01  1.30550488491290390E-01
  1.32192611484384132E-01  1.33855389841970512E-01  1.35539083376550379E-01
  1.37243955168664444E-01  1.38970271607998380E-01  1.40718302435008297E-01
  1.42488320783067529E-01  1.44280603221143611E-01  1.46095429797014426E-01
  1.47933084081024208E-01  1.49793853210393874E-01  1.51678027934085857E-01
  1.53585902658233631E-01  1.55517775492144988E-01  1.57473948294880067E-01
  1.59454726722419476E-01  1.61460420275422706E-01  1.63491342347587443E-01
  1.65547810274620039E-01  1.67630145383817347E-01  1.69738673044277061E-01
  1.71873722717736266E-01  1.74035628010049626E-01  1.76224726723318098E-01
  1.78441360908668745E-01  1.80685876919703170E-01  1.82958625466614871E-01
  1.85259961670987627E-01  1.87590245121286137E-01  1.89949839929039827E-01
  1.92339114785738702E-01  1.94758443020439487E-01  1.97208202658101350E-01
  1.99688776478652102E-01  2.02200552076797241E-01  2.04743921922584976E-01
  2.07319283422727513E-01  2.09927038982699155E-01  2.12567596069612147E-01
  2.15241367275882750E-01  2.17948770383702556E-01  2.20690228430314661E-01
  2.23466169774116735E-01  2.26277028161591898E-01  2.29123242795081089E-01
  2.32005258401412257E-01  2.34923525301386604E-01  2.37878499480144917E-01
  2.40870642658414985E-01  2.43900422364655145E-01  2.46968312008109481E-01
  2.50074790952775572E-01  2.53220344592309188E-01  2.56405464425866536E-01
  2.59630648134900943E-01  2.62896399660929592E-01  2.66203229284271647E-01
  2.69551653703784033E-01  2.72942196117595237E-01  2.76375386304854531E-01
  2.79851760708514585E-01  2.83371862519147588E-01  2.86936241759823851E-01
  2.90545455372051842E-01  2.94200067302800516E-01  2.97900648592620498E-01
  3.01647777464866096E-01  3.05442039416047750E-01  3.09284027307315357E-01
  3.13174341457092442E-01  3.17113589734880907E-01  3.21102387656237498E-01
  3.25141358478953257E-01  3.29231133300437129E-01  3.33372351156324576E-01
  3.37565659120332151E-01  3.41811712405359291E-01  3.46111174465871141E-01
  3.50464717101562462E-01  3.54873020562326391E-01  3.59336773654548525E-01
  3.63856673848729939E-01  3.68433427388472345E-01  3.73067749400828486E-01
  3.77760364008040028E-01  3.82512004440687947E-01  3.87323413152255824E-01
  3.92195341935144270E-01  3.97128552038138460E-01  4.02123814285352210E-01
  4.07181909196675962E-01  4.12303627109729065E-01  4.17489768303356323E-01
  4.22741143122671137E-01  4.28058572105671775E-01  4.33442886111456538E-01
  4.38894926450041911E-01  4.44415545013823743E-01  4.50005604410685212E-01
  4.55665978098778568E-01  4.61397550523010347E-01  4.67201217253231049E-01
  4.73077885124175868E-01  4.79028472377156622E-01  4.85053908803536438E-01
  4.91155135890017525E-01  4.97333106965743565E-01  5.03588787351264888E-01
  5.09923154509370091E-01  5.16337198197813319E-01  5.22831920623971991E-01
  5.29408336601437046E-01  5.36067473708585762E-01  5.42810372449139988E-01
  5.49638086414744875E-01  5.56551682449600293E-01  5.63552240817150718E-01
  5.70640855368884758E-01  5.77818633715249108E-01  5.85086697398711442E-01
  5.92446182069011673E-01  5.99898237660600131E-01  6.07444028572325490E-01
  6.15084733849370902E-01  6.22821547367478745E-01  6.30655678019504062E-01
  6.38588349904297914E-01  6.46620802517982374E-01  6.54754290947621609E-01
  6.62990086067328233E-01  6.71329474736847787E-01  6.79773760002624350E-01
  6.88324261301411666E-01  6.96982314666435121E-01  7.05749272936145533E-01
  7.14626505965611614E-01  7.23615400840552425E-01  7.32717362094081448E-01
  7.41933811926164144E-01  7.51266190425834979E-01  7.60715955796224197E-01
  7.70284584582393794E-01  7.79973571902060514E-01  7.89784431679206977E-01
  7.99718696880630797E-01  8.09777919755483855E-01  8.19963672077803407E-01
  8.30277545392114069E-01  8.40721151262106559E-01  8.51296121522442717E-01
  8.62004108533743651E-01  8.72846785440762440E-01  8.83825846433826889E-01
  8.94943007013556002E-01  9.06200004258904901E-01  9.17598597098599256E-01
  9.29140566585957339E-01  9.40827716177195739E-01  9.52661872013217281E-01
  9.64644883204945014E-01  9.76778622122260298E-01  9.89064984686552018E-01
  1.00150589066696938E+00  1.01410328398038474E+00  1.02685913299512954E+00
  1.03977543083856783E+00  1.05285419570851202E+00  1.06609747118858444E+00
  1.07950732656752391E+00  1.09308585716251261E+00  1.10683518464658537E+00
  1.12075745738013066E+00  1.13485485074659054E+00  1.14912956749236161E+00
  1.16358383807097354E+00  1.17821992099161599E+00  1.19304010317201814E+00
  1.20804670029579997E+00  1.22324205717429524E+00  1.23862854811292711E+00
  1.25420857728221313E+00  1.26998457909340456E+00  1.28595901857888295E+00
  1.30213439177732071E+00  1.31851322612368405E+00  1.33509808084416792E+00
  1.35189154735605932E+00  1.36889624967266954E+00  1.38611484481333491E+00
  1.40355002321857225E+00  1.42120450917048502E+00  1.43908106121841595E+00
  1.45718247260999556E+00  1.47551157172758352E+00  1.49407122253020330E+00
  1.51286432500105761E+00  1.53189381560063653E+00  1.55116266772556566E+00
  1.57067389217319442E+00  1.59043053761203357E+00  1.61043569105813322E+00
  1.63069247835741482E+00  1.65120406467410952E+00  1.67197365498531303E+00
  1.69300449458176194E+00  1.71429986957493652E+00  1.73586310741049954E+00
  1.75769757738823640E+00  1.77980669118850643E+00  1.80219390340531671E+00
  1.82486271208612894E+00  1.84781665927841376E+00  1.87105933158312276E+00
  1.89459436071509524E+00  1.91842542407050742E+00  1.94255624530150173E+00
  1.96699059489798178E+00  1.99173229077678804E+00  2.01678519887824281E+00
  2.04215323377020042E+00  2.06784035925973075E+00  2.09385058901244525E+00
  2.12018798717966561E+00  2.14685666903344252E+00  2.17386080160956618E+00
  2.20120460435869880E+00  2.22889234980564455E+00  2.25692836421696352E+00
  2.28531702827695238E+00  2.31406277777211944E+00  2.34317010428431383E+00
  2.37264355589251608E+00  2.40248773788350656E+00  2.43270731347144498E+00
  2.46330700452649065E+00  2.49429159231263498E+00  2.52566591823474917E+00
  2.55743488459509516E+00  2.58960345535930525E+00  2.62217665693199997E+00
  2.65515957894220467E+00  2.68855737503857828E+00  2.72237526369471405E+00
  2.75661852902452287E+00  2.79129252160787056E+00  2.82640265932665358E+00
  2.86195442821131207E+00  2.89795338329806995E+00  2.93440514949690501E+00
  2.97131542247043745E+00  3.00868996952392509E+00  3.04653463050637230E+00
  3.08485531872305874E+00  3.12365802185948827E+00  3.16294880291695968E+00
  3.20273380115996131E+00  3.24301923307540152E+00  3.28381139334398364E+00
  3.32511665582374683E+00  3.36694147454598003E+00  3.40929238472371221E+00
  3.45217600377281109E+00  3.49559903234600533E+00  3.53956825537986175E+00
  3.58409054315492259E+00  3.62917285236924680E+00  3.67482222722535656E+00
  3.72104580053095413E+00  3.76785079481341789E+00  3.81524452344831611E+00
  3.86323439180218564E+00  3.91182789838957934E+00  3.96103263604477096E+00
  4.01085629310813641E+00  4.06130665462744211E+00  4.11239160357433331E+00
  4.16411912207600210E+00  4.21649729266246176E+00  4.26953429952943697E+00
  4.32323842981714090E+00  4.37761807490520827E+00  4.43268173172380564E+00
  4.48843800408134541E+00  4.54489560400882908E+00  4.60206335312109349E+00
  4.65995018399526195E+00  4.71856514156641271E+00  4.77791738454092929E+00
  4.83801618682753620E+00  4.89887093898634873E+00  4.96049114969621563E+00
  5.02288644724041156E+00  5.08606658101112963E+00  5.15004142303282464E+00
  5.21482096950469831E+00  5.28041534236270316E+00  5.34683479086103119E+00
  5.41408969317365063E+00  5.48219055801588873E+00  5.55114802628641169E+00
  5.62097287272994972E+00  5.69167600762079928E+00  5.76326847846764423E+00
  5.83576147173972171E+00  5.90916631461469688E+00  5.98349447674863288E+00
  6.05875757206806487E+00  6.13496736058477055E+00  6.21213575023326658E+00
  6.29027479873141271E+00  6.36939671546453656E+00  6.44951386339307930E+00
  6.53063876098441387E+00  6.61278408416885100E+00  6.69596266832024334E+00
  6.78018751026161315E+00  6.86547177029584788E+00  6.95182877426210322E+00
  7.03927201561795357E+00  7.12781515754774375E+00  7.21747203509756385E+00
  7.30825665733691743E+00  7.40018320954774289E+00  7.49326605544086366E+00
  7.58751973940030222E+00  7.68295898875596261E+00  7.77959871608470621E+00
  7.87745402154055352E+00  7.97654019521408575E+00  8.07687271952150354E+00
  8.17846727162388376E+00  8.28133972587666278E+00  8.38550615631012697E+00
  8.49098283914097429E+00  8.59778625531546048E+00  8.70593309308468655E+00
  8.81544025061205261E+00  8.92632483861372705E+00  9.03860418303220037E+00
  9.15229582774344053E+00  9.26741753729827167E+00  9.38398729969799739E+00
  9.50202332920516923E+00  9.62154406918956262E+00  9.74256819500993565E+00
  9.86511461693220504E+00  9.98920248308408354E+00  1.01148511824471345E+01
  1.02420803478862847E+01  1.03709098592174485E+01  1.05013598463139122E+01
  1.06334506922515288E+01  1.07672030364937328E+01  1.09026377781164516E+01
  1.10397760790735706E+01  1.11786393675036653E+01  1.13192493410780290E+01
  1.14616279703911275E+01  1.16057975023934858E+01  1.17517804638677497E+01
  1.18995996649486973E+01  1.20492782026871925E+01  1.22008394646593086E+01
  1.23543071326205975E+01  1.25097051862063697E+01  1.26670579066787035E+01
  1.28263898807202619E+01  1.29877260042761762E+01  1.31510914864440149E+01
  1.33165118534126901E+01  1.34840129524511383E+01  1.36536209559468222E+01