<?xml version="1.0" encoding="UTF-8"?>
<UPF version="2.0.1">
  <PP_INFO><![CDATA[
Generated using "atomic" code by A. Dal Corso  v.6.3MaX
Author: MS
Generation date: 20Mar2023
Pseudopotential type: PAW
Element: Cm
Functional:  SLA  PW   PBX  PBC
    Suggested minimum cutoff for wavefunctions:  62. Ry
    Suggested minimum cutoff for charge density: 375. Ry
    The Pseudo was generated with a Scalar-Relativistic Calculation
    Local Potential according to Troullier-Martins recipe, cutoff radius:   1.3000
    Pseudopotential contains additional information for GIPAW reconstruction.
    Valence configuration:
    nl pn  l   occ       Rcut    Rcut US       E pseu
    6S  1  0  2.00      1.200      1.650    -4.119728
    7S  2  0  2.00      1.200      1.650    -0.332678
    6P  2  1  6.00      1.300      1.900    -1.907236
    6D  3  2  1.00      1.400      2.100    -0.147461
    5F  4  3  7.00      1.200      1.800    -0.499718
    Generation configuration:
    6S  1  0  2.00      1.200      1.650    -4.119768
    7S  2  0  2.00      1.200      1.650    -0.332688
    6P  2  1  6.00      1.300      1.900    -1.907263
    7P  3  1  0.00      1.300      1.900     3.500000
    6D  3  2  1.00      1.400      2.100    -0.147474
    6D  3  2  0.00      1.400      2.100     3.500000
    5F  4  3  7.00      1.200      1.800    -0.499757
    5F  4  3  0.00      1.200      2.100     0.850000
    Pseudization used: troullier-martins
]]>
    <PP_INPUTFILE><![CDATA[
 &input
   title='Curium',
   zed=96.0,
   rel=1,
   config='[Rn] 6d1.0 7s2.0 7p0.0 5f7.0',
   iswitch=3,
   dft='pbe'
 /
 &inputp
   lpaw=.true.,
   pseudotype=3,
   file_pseudopw='Cm.pbe-spn-kjpaw_MS.UPF',
   author='MS',
   lloc=-2,
   rcloc=1.30,
   which_augfun='PSQ',
   rmatch_augfun_nc=.true.,
   nlcc=.true.,
   new_core_ps=.true.,
   rcore=1.05,
   tm=.true.
   lgipaw_reconstruction=.true.,
   use_paw_as_gipaw = .true.
 /
8
6S  1  0  2.00  0.00  1.20  1.65  0.0
7S  2  0  2.00  0.00  1.20  1.65  0.0
6P  2  1  6.00  0.00  1.30  1.90  0.0
7P  3  1  0.00  3.50  1.30  1.90  0.0
6D  3  2  1.00  0.00  1.40  2.10  0.0
6D  3  2  0.00  3.50  1.40  2.10  0.0
5F  4  3  7.00  0.00  1.20  1.80  0.0
5F  4  3  0.00  0.85  1.20  2.10  0.0

]]></PP_INPUTFILE>
  </PP_INFO>
  <!--
 END OF HUMAN READABLE SECTION 
-->
  <PP_HEADER generated="Generated using &quot;atomic&quot; code by A. Dal Corso  v.6.3MaX" author="MS" date="20Mar2023" comment="" element="Cm" pseudo_type="PAW" relativistic="scalar" is_ultrasoft="true" is_paw="true" is_coulomb="false" has_so="false" has_wfc="true" has_gipaw="true" paw_as_gipaw="true" core_correction="true" functional=" SLA  PW   PBX  PBC" z_valence="1.800000000000e1" total_psenergy="-1.181139270378e3" wfc_cutoff="6.226498062322e1" rho_cutoff="3.752168737068e2" l_max="3" l_max_rho="6" l_local="-2" mesh_size="1295" number_of_wfc="5" number_of_proj="8"/>
  <PP_MESH dx="1.250000000000e-2" mesh="1295" xmin="-7.000000000000e0" rmax="1.000000000000e2" zmesh="9.600000000000e1">
    <PP_R>
      9.498770474526211e-6 9.618250298635649e-6 9.739232993922730e-6 9.861737464179729e-6
      9.985782850979374e-6 1.011138853666572e-5 1.023857414738269e-5 1.036735955614075e-5
      1.049776488592198e-5 1.062981051282453e-5 1.076351706924622e-5 1.089890544710852e-5
      1.103599680112094e-5 1.117481255208642e-5 1.131537439024852e-5 1.145770427868040e-5
      1.160182445671670e-5 1.174775744342846e-5 1.189552604114174e-5 1.204515333900060e-5
      1.219666271657474e-5 1.235007784751263e-5 1.250542270324063e-5 1.266272155670848e-5
      1.282199898618209e-5 1.298327987908385e-5 1.314658943588140e-5 1.331195317402525e-5
      1.347939693193592e-5 1.364894687304125e-5 1.382062948986450e-5 1.399447160816382e-5
      1.417050039112390e-5 1.434874334360018e-5 1.452922831641665e-5 1.471198351071752e-5
      1.489703748237369e-5 1.508441914644474e-5 1.527415778169691e-5 1.546628303517799e-5
      1.566082492684971e-5 1.585781385427846e-5 1.605728059738490e-5 1.625925632325346e-5
      1.646377259100226e-5 1.667086135671421e-5 1.688055497843028e-5 1.709288622120548e-5
      1.730788826222848e-5 1.752559469600564e-5 1.774603953961014e-5 1.796925723799732e-5
      1.819528266938666e-5 1.842415115071167e-5 1.865589844313822e-5 1.889056075765224e-5
      1.912817476071779e-5 1.936877758000626e-5 1.961240681019768e-5 1.985910051885496e-5
      2.010889725237197e-5 2.036183604199653e-5 2.061795640992913e-5 2.087729837549832e-5
      2.113990246141389e-5 2.140580970009853e-5 2.167506164009926e-5 2.194770035257952e-5
      2.222376843789279e-5 2.250330903223911e-5 2.278636581440505e-5 2.307298301258871e-5
      2.336320541131045e-5 2.365707835841049e-5 2.395464777213475e-5 2.425596014830952e-5
      2.456106256760659e-5 2.487000270289972e-5 2.518282882671358e-5 2.549958981876649e-5
      2.582033517360790e-5 2.614511500835207e-5 2.647398007050894e-5 2.680698174591354e-5
      2.714417206675519e-5 2.748560371970752e-5 2.783133005416095e-5 2.818140509055861e-5
      2.853588352883718e-5 2.889482075697384e-5 2.925827285964076e-5 2.962629662696841e-5
      2.999894956341920e-5 3.037628989677258e-5 3.075837658722340e-5 3.114526933659437e-5
      3.153702859766474e-5 3.193371558361607e-5 3.233539227759696e-5 3.274212144240813e-5
      3.315396663030903e-5 3.357099219294819e-5 3.399326329141822e-5 3.442084590643730e-5
      3.485380684865909e-5 3.529221376911158e-5 3.573613516976806e-5 3.618564041425056e-5
      3.664079973866801e-5 3.710168426259093e-5 3.756836600016386e-5 3.804091787135775e-5
      3.851941371336387e-5 3.900392829213104e-5 3.949453731404800e-5 3.999131743777254e-5
      4.049434628620968e-5 4.100370245864045e-5 4.151946554300303e-5 4.204171612832874e-5
      4.257053581733402e-5 4.310600723917121e-5 4.364821406233937e-5 4.419724100775771e-5
      4.475317386200355e-5 4.531609949071634e-5 4.588610585217089e-5 4.646328201102085e-5
      4.704771815221527e-5 4.763950559509035e-5 4.823873680763797e-5 4.884550542095428e-5
      4.945990624386956e-5 5.008203527776235e-5 5.071198973156003e-5 5.134986803692763e-5
      5.199576986364809e-5 5.264979613519598e-5 5.331204904450679e-5 5.398263206994505e-5
      5.466164999147275e-5 5.534920890702162e-5 5.604541624907105e-5 5.675038080143463e-5
      5.746421271625803e-5 5.818702353123020e-5 5.891892618701155e-5 5.966003504488109e-5
      6.041046590460564e-5 6.117033602253388e-5 6.193976412991764e-5 6.271887045146417e-5
      6.350777672412123e-5 6.430660621609897e-5 6.511548374613084e-5 6.593453570297654e-5
      6.676389006517067e-5 6.760367642101965e-5 6.845402598885013e-5 6.931507163751222e-5
      7.018694790714028e-5 7.106979103017529e-5 7.196373895265138e-5 7.286893135575012e-5
      7.378550967762631e-5 7.471361713550727e-5 7.565339874807178e-5 7.660500135810872e-5
      7.756857365546185e-5 7.854426620026328e-5 7.953223144645793e-5 8.053262376562575e-5
      8.154559947110180e-5 8.257131684240097e-5 8.360993614994960e-5 8.466161968012718e-5
      8.572653176062532e-5 8.680483878612302e-5 8.789670924428679e-5 8.900231374209739e-5
      9.012182503250660e-5 9.125541804143154e-5 9.240326989508601e-5 9.356555994765746e-5
      9.474246980933149e-5 9.593418337466813e-5 9.714088685133673e-5 9.836276878921053e-5
      9.960002010982816e-5 1.008528341362260e-4 1.021214066231440e-4 1.034059357876147e-4
      1.047066223399332e-4 1.060236695150194e-4 1.073572831041745e-4 1.087076714872344e-4
      1.100750456651318e-4 1.114596192928638e-4 1.128616087128766e-4 1.142812329888697e-4
      1.157187139400240e-4 1.171742761756632e-4 1.186481471303477e-4 1.201405570994127e-4
      1.216517392749526e-4 1.231819297822564e-4 1.247313677167044e-4 1.263002951811260e-4
      1.278889573236295e-4 1.294976023759072e-4 1.311264816920208e-4 1.327758497876778e-4
      1.344459643799987e-4 1.361370864277863e-4 1.378494801723015e-4 1.395834131785503e-4
      1.413391563770930e-4 1.431169841063765e-4 1.449171741556002e-4 1.467400078081222e-4
      1.485857698854089e-4 1.504547487915404e-4 1.523472365582732e-4 1.542635288906708e-4
      1.562039252133096e-4 1.581687287170619e-4 1.601582464064732e-4 1.621727891477301e-4
      1.642126717172343e-4 1.662782128507878e-4 1.683697352933945e-4 1.704875658496920e-4
      1.726320354350130e-4 1.748034791270933e-4 1.770022362184279e-4 1.792286502692853e-4
      1.814830691613908e-4 1.837658451522829e-4 1.860773349303545e-4 1.884178996705866e-4
      1.907879050909811e-4 1.931877215097071e-4 1.956177239029626e-4 1.980782919635652e-4
      2.005698101602805e-4 2.030926677978958e-4 2.056472590780498e-4 2.082339831608274e-4
      2.108532442271291e-4 2.135054515418256e-4 2.161910195177057e-4 2.189103677802295e-4
      2.216639212330956e-4 2.244521101246330e-4 2.272753701150289e-4 2.301341423444004e-4
      2.330288735017250e-4 2.359600158946351e-4 2.389280275200930e-4 2.419333721359539e-4
      2.449765193334282e-4 2.480579446104571e-4 2.511781294460091e-4 2.543375613753129e-4
      2.575367340660354e-4 2.607761473954182e-4 2.640563075283848e-4 2.673777269966295e-4
      2.707409247787016e-4 2.741464263810970e-4 2.775947639203697e-4 2.810864762062759e-4
      2.846221088259642e-4 2.882022142292248e-4 2.918273518148107e-4 2.954980880178448e-4
      2.992149963983275e-4 3.029786577307550e-4 3.067896600948676e-4 3.106485989675387e-4
      3.145560773158177e-4 3.185127056911468e-4 3.225191023247593e-4 3.265758932242801e-4
      3.306837122715412e-4 3.348432013216257e-4 3.390550103031607e-4 3.433197973198685e-4
      3.476382287533966e-4 3.520109793674433e-4 3.564387324131878e-4 3.609221797360523e-4
      3.654620218838025e-4 3.700589682160100e-4 3.747137370148923e-4 3.794270555975441e-4
      3.841996604295834e-4 3.890322972402252e-4 3.939257211388030e-4 3.988806967327569e-4
      4.038979982471043e-4 4.089784096454148e-4 4.141227247523054e-4 4.193317473774777e-4
      4.246062914413148e-4 4.299471811020577e-4 4.353552508845825e-4 4.408313458107950e-4
      4.463763215316686e-4 4.519910444609414e-4 4.576763919104939e-4 4.634332522274326e-4
      4.692625249328940e-4 4.751651208625979e-4 4.811419623091679e-4 4.871939831662394e-4
      4.933221290743847e-4 4.995273575688696e-4 5.058106382292705e-4 5.121729528309747e-4
      5.186152954985827e-4 5.251386728612434e-4 5.317441042099418e-4 5.384326216567647e-4
      5.452052702961707e-4 5.520631083682895e-4 5.590072074242723e-4 5.660386524937239e-4
      5.731585422542422e-4 5.803679892030875e-4 5.876681198310141e-4 5.950600747982843e-4
      6.025450091129009e-4 6.101240923110787e-4 6.177985086399866e-4 6.255694572427911e-4
      6.334381523460204e-4 6.414058234492942e-4 6.494737155174319e-4 6.576430891749832e-4
      6.659152209032038e-4 6.742914032395058e-4 6.827729449794205e-4 6.913611713811005e-4
      7.000574243723933e-4 7.088630627605229e-4 7.177794624444019e-4 7.268080166296214e-4
      7.359501360461418e-4 7.452072491687210e-4 7.545808024401193e-4 7.640722604971055e-4
      7.736831063993115e-4 7.834148418609630e-4 7.932689874855242e-4 8.032470830032990e-4
      8.133506875120121e-4 8.235813797204239e-4 8.339407581950063e-4 8.444304416097212e-4
      8.550520689989460e-4 8.658073000135683e-4 8.766978151803167e-4 8.877253161643424e-4
      8.988915260351094e-4 9.101981895356291e-4 9.216470733550764e-4 9.332399664048408e-4
      9.449786800980476e-4 9.568650486325925e-4 9.689009292777445e-4 9.810882026643405e-4
      9.934287730786423e-4 1.005924568759884e-3 1.018577542201563e-3 1.031389670456524e-3
      1.044362955445872e-3 1.057499424271782e-3 1.070801129534234e-3 1.084270149651736e-3
      1.097908589186087e-3 1.111718579171211e-3 1.125702277446139e-3 1.139861868992177e-3
      1.154199566274312e-3 1.168717609586914e-3 1.183418267403789e-3 1.198303836732630e-3
      1.213376643473927e-3 1.228639042784402e-3 1.244093419444996e-3 1.259742188233507e-3
      1.275587794301895e-3 1.291632713558347e-3 1.307879453054139e-3 1.324330551375371e-3
      1.340988579039628e-3 1.357856138897622e-3 1.374935866539899e-3 1.392230430708651e-3
      1.409742533714716e-3 1.427474911859817e-3 1.445430335864118e-3 1.463611611299148e-3
      1.482021579026184e-3 1.500663115640138e-3 1.519539133919036e-3 1.538652583279134e-3
      1.558006450235782e-3 1.577603758870070e-3 1.597447571301338e-3 1.617540988165657e-3
      1.637887149100288e-3 1.658489233234274e-3 1.679350459685176e-3 1.700474088062067e-3
      1.721863418974860e-3 1.743521794550027e-3 1.765452598952814e-3 1.787659258916030e-3
      1.810145244275470e-3 1.832914068512099e-3 1.855969289301026e-3 1.879314509067405e-3
      1.902953375549321e-3 1.926889582367753e-3 1.951126869603719e-3 1.975669024382660e-3
      2.000519881466190e-3 2.025683323851288e-3 2.051163283377022e-3 2.076963741338908e-3
      2.103088729110994e-3 2.129542328775772e-3 2.156328673762009e-3 2.183451949490602e-3
      2.210916394028574e-3 2.238726298751256e-3 2.266886009012844e-3 2.295399924825354e-3
      2.324272501546144e-3 2.353508250574072e-3 2.383111740054401e-3 2.413087595592592e-3
      2.443440500977061e-3 2.474175198911022e-3 2.505296491753564e-3 2.536809242270008e-3
      2.568718374391735e-3 2.601028873985560e-3 2.633745789632775e-3 2.666874233418022e-3
      2.700419381728038e-3 2.734386476060493e-3 2.768780823842987e-3 2.803607799262331e-3
      2.838872844104298e-3 2.874581468603888e-3 2.910739252306327e-3 2.947351844938886e-3
      2.984424967293647e-3 3.021964412121410e-3 3.059976045036801e-3 3.098465805434799e-3
      3.137439707418774e-3 3.176903840740200e-3 3.216864371750208e-3 3.257327544363061e-3
      3.298299681031807e-3 3.339787183736155e-3 3.381796534982810e-3 3.424334298818377e-3
      3.467407121854996e-3 3.511021734308901e-3 3.555184951052020e-3 3.599903672676818e-3
      3.645184886574536e-3 3.691035668026967e-3 3.737463181311998e-3 3.784474680823036e-3
      3.832077512202525e-3 3.880279113489720e-3 3.929087016282886e-3 3.978508846916137e-3
      4.028552327651058e-3 4.079225277883323e-3 4.130535615364510e-3 4.182491357439238e-3
      4.235100622297910e-3 4.288371630245196e-3 4.342312704984463e-3 4.396932274918392e-3
      4.452238874465904e-3 4.508241145395703e-3 4.564947838176558e-3 4.622367813344582e-3
      4.680510042887726e-3 4.739383611647643e-3 4.798997718739230e-3 4.859361678988007e-3
      4.920484924385570e-3 4.982377005563377e-3 5.045047593285028e-3 5.108506479957358e-3
      5.172763581160520e-3 5.237828937197301e-3 5.303712714661971e-3 5.370425208028794e-3
      5.437976841260586e-3 5.506378169437477e-3 5.575639880406148e-3 5.645772796449867e-3
      5.716787875979444e-3 5.788696215245539e-3 5.861509050072460e-3 5.935237757613780e-3
      6.009893858130070e-3 6.085489016788916e-3 6.162035045487661e-3 6.239543904699017e-3
      6.318027705339933e-3 6.397498710663935e-3 6.477969338177294e-3 6.559452161579273e-3
      6.641959912726811e-3 6.725505483623875e-3 6.810101928435910e-3 6.895762465529522e-3
      6.982500479537913e-3 7.070329523452237e-3 7.159263320739294e-3 7.249315767485855e-3
      7.340500934569933e-3 7.432833069859406e-3 7.526326600438258e-3 7.620996134860852e-3
      7.716856465434563e-3 7.813922570531062e-3 7.912209616926759e-3 8.011732962172614e-3
      8.112508156993801e-3 8.214550947719550e-3 8.317877278743515e-3 8.422503295015133e-3
      8.528445344562318e-3 8.635719981045836e-3 8.744343966345911e-3 8.854334273181234e-3
      8.965708087761024e-3 9.078482812470401e-3 9.192676068589535e-3 9.308305699047040e-3
      9.425389771207914e-3 9.543946579696648e-3 9.663994649255766e-3 9.785552737640375e-3
      9.908639838549105e-3 1.003327518459190e-2 1.015947825029514e-2 1.028726875514461e-2
      1.041666666666667e-2 1.054769220354828e-2 1.068036583879614e-2 1.081470830293568e-2
      1.095074058725026e-2 1.108848394706104e-2 1.122795990504825e-2 1.136919025461408e-2
      1.151219706328800e-2 1.165700267617480e-2 1.180362971944611e-2 1.195210110387575e-2
      1.210244002841962e-2 1.225466998384053e-2 1.240881475637874e-2 1.256489843146855e-2
      1.272294539750177e-2 1.288298034963839e-2 1.304502829366526e-2 1.320911454990334e-2
      1.337526475716397e-2 1.354350487675512e-2 1.371386119653773e-2 1.388636033503337e-2
      1.406102924558338e-2 1.423789522056038e-2 1.441698589563283e-2 1.459832925408306e-2
      1.478195363117977e-2 1.496788771860547e-2 1.515616056893960e-2 1.534680160019808e-2
      1.553984060042990e-2 1.573530773237160e-2 1.593323353816021e-2 1.613364894410556e-2
      1.633658526552259e-2 1.654207421162442e-2 1.675014789047691e-2 1.696083881401574e-2
      1.717417990312633e-2 1.739020449278795e-2 1.760894633728221e-2 1.783043961546735e-2
      1.805471893611871e-2 1.828181934333644e-2 1.851177632202124e-2 1.874462580341885e-2
      1.898040417073448e-2 1.921914826481772e-2 1.946089538991898e-2 1.970568331951844e-2
      1.995355030222809e-2 2.020453506776828e-2 2.045867683301926e-2 2.071601530814887e-2
      2.097659070281747e-2 2.124044373246058e-2 2.150761562465091e-2 2.177814812554018e-2
      2.205208350638203e-2 2.232946457013708e-2 2.261033465816086e-2 2.289473765697607e-2
      2.318271800512989e-2 2.347432070013759e-2 2.376959130551358e-2 2.406857595789067e-2
      2.437132137422908e-2 2.467787485911606e-2 2.498828431215727e-2 2.530259823546134e-2
      2.562086574121824e-2 2.594313655937325e-2 2.626946104539739e-2 2.659989018815549e-2
      2.693447561787341e-2 2.727326961420522e-2 2.761632511440216e-2 2.796369572158409e-2
      2.831543571311506e-2 2.867160004908445e-2 2.903224438089429e-2 2.939742505995520e-2
      2.976719914649131e-2 3.014162441845585e-2 3.052075938055943e-2 3.090466327341113e-2
      3.129339608277534e-2 3.168701854894444e-2 3.208559217622949e-2 3.248917924257078e-2
      3.289784280926843e-2 3.331164673083619e-2 3.373065566497879e-2 3.415493508269452e-2
      3.458455127850574e-2 3.501957138081698e-2 3.546006336240435e-2 3.590609605103622e-2
      3.635773914022752e-2 3.681506320012993e-2 3.727813968855813e-2 3.774704096215564e-2
      3.822184028770049e-2 3.870261185355317e-2 3.918943078124911e-2 3.968237313723607e-2
      4.018151594476014e-2 4.068693719590057e-2 4.119871586375601e-2 4.171693191478468e-2
      4.224166632129871e-2 4.277300107411678e-2 4.331101919537511e-2 4.385580475149959e-2
      4.440744286634190e-2 4.496601973447963e-2 4.553162263468496e-2 4.610433994356185e-2
      4.668426114935484e-2 4.727147686593237e-2 4.786607884694469e-2 4.846816000016113e-2
      4.907781440198692e-2 4.969513731216252e-2 5.032022518864878e-2 5.095317570269798e-2
      5.159408775411576e-2 5.224306148671420e-2 5.290019830395918e-2 5.356560088481554e-2
      5.423937319979011e-2 5.492162052717802e-2 5.561244946951229e-2 5.631196797022049e-2
      5.702028533049173e-2 5.773751222635441e-2 5.846376072597036e-2 5.919914430714529e-2
      5.994377787505969e-2 6.069777778022375e-2 6.146126183665643e-2 6.223434934029502e-2
      6.301716108763490e-2 6.380981939460401e-2 6.461244811567575e-2 6.542517266322047e-2
      6.624812002710239e-2 6.708141879452150e-2 6.792519917010534e-2 6.877959299625452e-2
      6.964473377374242e-2 7.052075668257576e-2 7.140779860311648e-2 7.230599813746911e-2
      7.321549563113855e-2 7.413643319495831e-2 7.506895472729651e-2 7.601320593653997e-2
      7.696933436386094e-2 7.793748940627172e-2 7.891782233996718e-2 7.991048634396280e-2
      8.091563652402893e-2 8.193342993692596e-2 8.296402561494563e-2 8.400758459075913e-2
      8.506426992257964e-2 8.613424671964037e-2 8.721768216799235e-2 8.831474555662899e-2
      8.942560830393642e-2 9.055044398447919e-2 9.168942835612096e-2 9.284273938748683e-2
      9.401055728577219e-2 9.519306452489925e-2 9.639044587403010e-2 9.760288842643682e-2
      9.883058162873464e-2 1.000737173104845e-1 1.013324897141655e-1 1.026070955255269e-1
      1.038977339043201e-1 1.052046065154172e-1 1.065279175603230e-1 1.078678738090802e-1
      1.092246846325789e-1 1.105985620352709e-1 1.119897206882954e-1 1.133983779630224e-1
      1.148247539650167e-1 1.162690715684309e-1 1.177315564508290e-1 1.192124371284492e-1
      1.207119449919104e-1 1.222303143423668e-1 1.237677824281187e-1 1.253245894816827e-1
      1.269009787573278e-1 1.284971965690861e-1 1.301134923292376e-1 1.317501185872836e-1
      1.334073310694067e-1 1.350853887184285e-1 1.367845537342711e-1 1.385050916149249e-1
      1.402472711979345e-1 1.420113647024038e-1 1.437976477715322e-1 1.456063995156838e-1
      1.474379025559980e-1 1.492924430685516e-1 1.511703108290722e-1 1.530717992582181e-1
      1.549972054674255e-1 1.569468303053312e-1 1.589209784047831e-1 1.609199582304378e-1
      1.629440821269601e-1 1.649936663678274e-1 1.670690312047466e-1 1.691705009176965e-1
      1.712984038655944e-1 1.734530725376057e-1 1.756348436050943e-1 1.778440579742277e-1
      1.800810608392465e-1 1.823462017363988e-1 1.846398345985588e-1 1.869623178105277e-1
      1.893140142650319e-1 1.916952914194279e-1 1.941065213531148e-1 1.965480808256759e-1
      1.990203513357466e-1 2.015237191806231e-1 2.040585755166252e-1 2.066253164202118e-1
      2.092243429498716e-1 2.118560612087878e-1 2.145208824082920e-1 2.172192229321191e-1
      2.199515044014649e-1 2.227181537408681e-1 2.255196032449175e-1 2.283562906457966e-1
      2.312286591816840e-1 2.341371576660065e-1 2.370822405575701e-1 2.400643680315687e-1
      2.430840060514867e-1 2.461416264419088e-1 2.492377069622412e-1 2.523727313813644e-1
      2.555471895532226e-1 2.587615774933630e-1 2.620163974564416e-1 2.653121580146989e-1
      2.686493741374277e-1 2.720285672714374e-1 2.754502654225292e-1 2.789150032380016e-1
      2.824233220901866e-1 2.859757701610427e-1 2.895729025278093e-1 2.932152812497360e-1
      2.969034754559096e-1 3.006380614341774e-1 3.044196227211973e-1 3.082487501936144e-1
      3.121260421603857e-1 3.160521044562704e-1 3.200275505364889e-1 3.240530015725798e-1
      3.281290865494580e-1 3.322564423636927e-1 3.364357139230283e-1 3.406675542471476e-1
      3.449526245697116e-1 3.492915944416767e-1 3.536851418359120e-1 3.581339532531378e-1
      3.626387238291880e-1 3.672001574436306e-1 3.718189668297491e-1 3.764958736859056e-1
      3.812316087883129e-1 3.860269121052145e-1 3.908825329125105e-1 3.957992299108313e-1
      4.007777713440848e-1 4.058189351195002e-1 4.109235089291724e-1 4.160922903731452e-1
      4.213260870840358e-1 4.266257168532271e-1 4.319920077586543e-1 4.374257982941876e-1
      4.429279375006540e-1 4.484992850984996e-1 4.541407116221199e-1 4.598530985558885e-1
      4.656373384718839e-1 4.714943351693622e-1 4.774250038159741e-1 4.834302710907601e-1
      4.895110753289515e-1 4.956683666685803e-1 5.019031071989461e-1 5.082162711109422e-1
      5.146088448492728e-1 5.210818272665918e-1 5.276362297795695e-1 5.342730765269344e-1
      5.409934045294947e-1 5.477982638521714e-1 5.546887177680802e-1 5.616658429246622e-1
      5.687307295119192e-1 5.758844814327551e-1 5.831282164754600e-1 5.904630664883737e-1
      5.978901775567317e-1 6.054107101817499e-1 6.130258394619527e-1 6.207367552767812e-1
      6.285446624725214e-1 6.364507810505559e-1 6.444563463579987e-1 6.525626092807179e-1
      6.607708364387848e-1 6.690823103843954e-1 6.774983298022605e-1 6.860202097125385e-1
      6.946492816763042e-1 7.033868940036058e-1 7.122344119641482e-1 7.211932180006109e-1
      7.302647119446651e-1 7.394503112356973e-1 7.487514511422821e-1 7.581695849864557e-1
      7.677061843707901e-1 7.773627394083428e-1 7.871407589554863e-1 7.970417708476655e-1
      8.070673221381352e-1 8.172189793396786e-1 8.274983286693889e-1 8.379069762965138e-1
      8.484465485934182e-1 8.591186923897199e-1 8.699250752295967e-1 8.808673856323542e-1
      8.919473333562568e-1 9.031666496656761e-1 9.145270876016138e-1 9.260304222556076e-1
      9.376784510471023e-1 9.494729940042962e-1 9.614158940485197e-1 9.735090172822057e-1
      9.857542532804599e-1 9.981535153863216e-1 1.010708741009723e0 1.023421891930209e0
      1.036294954603479e0 1.049329940471762e0 1.062528886278122e0 1.075893854384696e0
      1.089426933094940e0 1.103130236979938e0 1.117005907208797e0 1.131056111883225e0
      1.145283046376288e0 1.159688933675441e0 1.174276024729889e0 1.189046598802282e0
      1.204002963824871e0 1.219147456760124e0 1.234482443965868e0 1.250010321565058e0
      1.265733515820156e0 1.281654483512256e0 1.297775712324953e0 1.314099721233043e0
      1.330629060896136e0 1.347366314057177e0 1.364314095946027e0 1.381475054688090e0
      1.398851871718078e0 1.416447262199012e0 1.434263975446445e0 1.452304795358075e0
      1.470572540848719e0 1.489070066290771e0 1.507800261960220e0 1.526766054488242e0
      1.545970407318506e0 1.565416321170219e0 1.585106834506975e0 1.605045024011551e0
      1.625234005066616e0 1.645676932241536e0 1.666376999785278e0 1.687337442125504e0
      1.708561534373979e0 1.730052592838293e0 1.751813975540057e0 1.773849082739595e0
      1.796161357467233e0 1.818754286061296e0 1.841631398712838e0 1.864796270017257e0
      1.888252519532827e0 1.912003812346250e0 1.936053859645358e0 1.960406419298963e0
      1.985065296444063e0 2.010034344080381e0 2.035317463672406e0 2.060918605759018e0
      2.086841770570748e0 2.113091008654842e0 2.139670421508160e0 2.166584162218027e0
      2.193836436111195e0 2.221431501410896e0 2.249373669902230e0 2.277667307605877e0
      2.306316835460283e0 2.335326730012472e0 2.364701524117480e0 2.394445807646655e0
      2.424564228204816e0 2.455061491856444e0 2.485942363861040e0 2.517211669417675e0
      2.548874294418962e0 2.580935186214483e0 2.613399354383798e0 2.646271871519243e0
      2.679557874018489e0 2.713262562887154e0 2.747391204551450e0 2.781949131681064e0
      2.816941744022427e0 2.852374509242402e0 2.888252963782646e0 2.924582713724682e0
      2.961369435665843e0 2.998618877606285e0 3.036336859847085e0 3.074529275899712e0
      3.113202093406881e0 3.152361355074998e0 3.192013179618381e0 3.232163762715275e0
      3.272819377975981e0 3.313986377923105e0 3.355671194984131e0 3.397880342496545e0
      3.440620415725510e0 3.483898092894428e0 3.527720136228412e0 3.572093393010879e0
      3.617024796653491e0 3.662521367779467e0 3.708590215320616e0 3.755238537628101e0
      3.802473623597176e0 3.850302853806138e0 3.898733701669502e0 3.947773734605787e0
      3.997430615219919e0 4.047712102500508e0 4.098626053032254e0 4.150180422223499e0
      4.202383265549324e0 4.255242739810214e0 4.308767104406550e0 4.362964722629211e0
      4.417844062966298e0 4.473413700426395e0 4.529682317878423e0 4.586658707408322e0
      4.644351771692891e0 4.702770525390787e0 4.761924096551135e0 4.821821728039787e0
      4.882472778983511e0 4.943886726232426e0 5.006073165840722e0 5.069041814566117e0
      5.132802511388092e0 5.197365219045230e0 5.262740025591974e0 5.328937145974836e0
      5.395966923628563e0 5.463839832092297e0 5.532566476646053e0 5.602157595967889e0
      5.672624063811765e0 5.743976890706654e0 5.816227225676937e0 5.889386357984429e0
      5.963465718892415e0 6.038476883451733e0 6.114431572309467e0 6.191341653540294e0
      6.269219144500856e0 6.348076213707585e0 6.427925182737955e0 6.508778528155843e0
      6.590648883460980e0 6.673549041062926e0 6.757491954279989e0 6.842490739363122e0
      6.928558677545436e0 7.015709217117390e0 7.103955975528078e0 7.193312741513066e0
      7.283793477248810e0 7.375412320534369e0 7.468183587000415e0 7.562121772346056e0
      7.657241554603895e0 7.753557796433406e0 7.851085547443347e0 7.949840046543247e0
      8.049836724324479e0 8.151091205471422e0 8.253619311202730e0 8.357437061743530e0
      8.462560678828583e0 8.569006588236901e0 8.676791422358425e0 8.785932022792744e0
      8.896445442980745e0 9.008348950869186e0 9.121660031608812e0 9.236396390286554e0
      9.352575954691858e0 9.470216878118045e0 9.589337542198761e0 9.709956559780087e0
      9.832092777828956e0 9.955765280377891e0 1.008099339150705e1 1.020779667836359e1
      1.033619495421902e1 1.046620828156523e1 1.059785697524908e1 1.073116160564681e1
      1.086614300187817e1 1.100282225506089e1 1.114122072160640e1 1.128136002655663e1
      1.142326206696311e1 1.156694901530839e1 1.171244332297042e1 1.185976772373085e1
      1.200894523732696e1 1.215999917304881e1 1.231295313338117e1 1.246783101769150e1
      1.262465702596436e1 1.278345566258257e1 1.294425174015621e1 1.310707038339955e1
      1.327193703305682e1 1.343887744987748e1 1.360791771864128e1 1.377908425223414e1
      1.395240379577520e1 1.412790343079571e1 1.430561057947076e1 1.448555300890380e1
      1.466775883546558e1 1.485225652918721e1 1.503907491820865e1 1.522824319328333e1
      1.541979091233903e1 1.561374800509658e1 1.581014477774639e1 1.600901191768367e1
      1.621038049830371e1 1.641428198385686e1 1.662074823436510e1 1.682981151060016e1
      1.704150447912424e1 1.725586021739443e1 1.747291221893087e1 1.769269439855044e1
      1.791524109766588e1 1.814058708965164e1 1.836876758527750e1 1.859981823821007e1
      1.883377515058399e1 1.907067487864284e1 1.931055443845103e1 1.955345131167789e1
      1.979940345145397e1 2.004844928830154e1 2.030062773613933e1 2.055597819836279e1
      2.081454057400126e1 2.107635526395188e1 2.134146317729269e1 2.160990573767451e1
      2.188172488979352e1 2.215696310594530e1 2.243566339266104e1 2.271786929742760e1
      2.300362491549178e1 2.329297489675020e1 2.358596445272622e1 2.388263936363394e1
      2.418304598553185e1 2.448723125756581e1 2.479524270930340e1 2.510712846816066e1
      2.542293726692188e1 2.574271845135443e1 2.606652198791902e1 2.639439847157692e1
      2.672639913369587e1 2.706257585005470e1 2.740298114894934e1 2.774766821940034e1
      2.809669091946365e1 2.845010378464633e1 2.880796203642750e1 2.917032159088712e1
      2.953723906744285e1 2.990877179769679e1 3.028497783439404e1 3.066591596049313e1
      3.105164569835134e1 3.144222731902504e1 3.183772185168698e1 3.223819109316265e1
      3.264369761758568e1 3.305430478617559e1 3.347007675713789e1 3.389107849568884e1
      3.431737578420673e1 3.474903523251009e1 3.518612428826599e1 3.562871124752872e1