<UPF version="2.0.1">
   <PP_INFO>
         UPF file from ATOMPAW code with following input
           Eu  63
           GGA-PBESOL  loggrid 2001 scalarrelativistic logderivrange -8 8 500
           6 5 5 4 0
           5 2 1
           4 3 6
           0 0 0
           c
           c
           c
           c
           v
           v
           c
           c
           c
           v
           c
           c
           v
           v
           3
           2.559 2.132 2.559 2.559
           n
           y
           2.0
           n
           y
           2.0
           n
           y
           2.0
           n
           VANDERBILT BESSELSHAPE
           4 0.0
           2.519
           2.519
           2.519
           2.519
           2.519
           2.519
           2.519
           2.519
           PWSCFOUT
           UPFDX  0.0125d0  UPFXMIN  -7.d0  UPFZMESH  63.0
           END
  </PP_INFO>
  <!--                               -->
  <!-- END OF HUMAN READABLE SECTION -->
  <PP_HEADER generated="Generated using ATOMPAW code"
             author="   "
             date=" 11/23/2022, 16:00:13.509"
             element="Eu"
             pseudo_type="PAW"
             relativistic="scalar"
             is_ultrasoft="T"
             is_paw="T"
             is_coulomb="F"
             has_so="F"
             has_wfc="T"
             has_gipaw="T"
             paw_as_gipaw="T"
             core_correction="T"
             functional="SLA PW PSX PSC"
             z_valence="17.000"
             l_max="3"
             l_max_rho="6"
             mesh_size="  1109"
             number_of_wfc="     8"
             number_of_proj=" 8"
                                    /> 
<PP_MESH dx=" 1.2500000000000E-02" mesh="  1109" xmin="-7.0000000000000E+00" zmesh=" 6.3000000000000E+01">
 <PP_R type="real" size="  1109" columns="3">
  1.44743169135637499E-05  1.46563814074447982E-05  1.48407359907393992E-05
  1.50274094692262533E-05  1.52164310110161890E-05  1.54078301511096652E-05
  1.56016367960117262E-05  1.57978812284049428E-05  1.59965941118811182E-05
  1.61978064957326112E-05  1.64015498198037614E-05  1.66078559194034703E-05
  1.68167570302795275E-05  1.70282857936555058E-05  1.72424752613310785E-05
  1.74593589008463219E-05  1.76789706007111643E-05  1.79013446757005144E-05
  1.81265158722159934E-05  1.83545193737152025E-05  1.85853908062091196E-05
  1.88191662438287758E-05  1.90558822144619176E-05  1.92955757054605520E-05
  1.95382841694203336E-05  1.97840455300325324E-05  2.00328981880097543E-05
  2.02848810270861020E-05  2.05400334200928242E-05  2.07983952351104781E-05
  2.10600068416982775E-05  2.13249091172020119E-05  2.15931434531411724E-05
  2.18647517616764618E-05  2.21397764821587113E-05  2.24182605877600270E-05
  2.27002475921884841E-05  2.29857815564872301E-05  2.32749070959190940E-05
  2.35676693869378876E-05  2.38641141742471819E-05  2.41642877779481196E-05
  2.44682371007769902E-05  2.47760096354338468E-05  2.50876534720034467E-05
  2.54032173054692738E-05  2.57227504433223269E-05  2.60463028132654914E-05
  2.63739249710148240E-05  2.67056681081990670E-05  2.70415840603583159E-05
  2.73817253150435311E-05  2.77261450200177722E-05  2.80748969915606444E-05
  2.84280357228772993E-05  2.87856163926129388E-05  2.91476948734747162E-05
  2.95143277409619218E-05  2.98855722822059881E-05  3.02614865049218489E-05
  3.06421291464715751E-05  3.10275596830423360E-05  3.14178383389396307E-05
  3.18130260959974487E-05  3.22131847031068924E-05  3.26183766858644244E-05
  3.30286653563417349E-05  3.34441148229783217E-05  3.38647900005985413E-05
  3.42907566205548364E-05  3.47220812409981789E-05  3.51588312572780425E-05
  3.56010749124730688E-05  3.60488813080540798E-05  3.65023204146815261E-05
  3.69614630831383172E-05  3.74263810554005213E-05  3.78971469758471963E-05
  3.83738344026111666E-05  3.88565178190727450E-05  3.93452726454977553E-05
  3.98401752508222004E-05  4.03413029645850521E-05  4.08487340890111082E-05
  4.13625479112460044E-05  4.18828247157447892E-05  4.24096457968166780E-05
  4.29430934713274107E-05  4.34832510915614056E-05  4.40302030582458536E-05
  4.45840348337382959E-05  4.51448329553804376E-05  4.57126850490197271E-05
  4.62876798427010750E-05  4.68699071805308992E-05  4.74594580367152465E-05
  4.80564245297748478E-05  4.86608999369387768E-05  4.92729787087191828E-05
  4.98927564836695322E-05  5.05203301033280451E-05  5.11557976273496271E-05
  5.17992583488277535E-05  5.24508128098092396E-05  5.31105628170043168E-05
  5.37786114576938368E-05  5.44550631158370531E-05  5.51400234883818029E-05
  5.58335996017798132E-05  5.65358998287099975E-05  5.72470339050115931E-05
  5.79671129468308524E-05  5.86962494679830500E-05  5.94345573975330239E-05
  6.01821520975969487E-05  6.09391503813676779E-05  6.17056705313671450E-05
  6.24818323179283106E-05  6.32677570179093665E-05  6.40635674336437867E-05
  6.48693879121280429E-05  6.56853443644513752E-05  6.65115642854695208E-05
  6.73481767737260347E-05  6.81953125516244406E-05  6.90531039858534746E-05
  6.99216851080699359E-05  7.08011916358412986E-05  7.16917609938518387E-05
  7.25935323353757596E-05  7.35066465640197691E-05  7.44312463557398506E-05
  7.53674761811345609E-05  7.63154823280188236E-05  7.72754129242819607E-05
  7.82474179610325625E-05  7.92316493160351851E-05  8.02282607774414889E-05
  8.12374080678198590E-05  8.22592488684876935E-05  8.32939428441489631E-05
  8.43416516678424752E-05  8.54025390462035002E-05  8.64767707450432582E-05
  8.75645146152503466E-05  8.86659406190174550E-05  8.97812208563985448E-05
  9.09105295921997604E-05  9.20540432832085974E-05  9.32119406057659093E-05
  9.43844024836840319E-05  9.55716121165168131E-05  9.67737550081847322E-05
  9.79910189959603401E-05  9.92235942798184387E-05  1.00471673452154714E-04
  1.01735451527879093E-04  1.03015125974887100E-04  1.04310896744914486E-04
  1.05622966304780535E-04  1.06951539668023282E-04  1.08296824426933766E-04
  1.09659030784992572E-04  1.11038371589714460E-04  1.12435062365906754E-04
  1.13849321349344433E-04  1.15281369520871295E-04  1.16731430640927558E-04
  1.18199731284513303E-04  1.19686500876591687E-04  1.21191971727935895E-04
  1.22716379071429691E-04  1.24259961098821802E-04  1.25822958997944359E-04
  1.27405616990399368E-04  1.29008182369717644E-04  1.30630905540000475E-04
  1.32274040055044582E-04  1.33937842657960813E-04  1.35622573321291223E-04
  1.37328495287629117E-04  1.39055875110752813E-04  1.40804982697273940E-04
  1.42576091348811353E-04  1.44369477804695616E-04  1.46185422285208575E-04
  1.48024208535370251E-04  1.49886123869273191E-04  1.51771459214976274E-04
  1.53680509159963383E-04  1.55613571997171879E-04  1.57570949771603349E-04
  1.59552948327517242E-04  1.61559877356220121E-04  1.63592050444456339E-04
  1.65649785123404819E-04  1.67733402918296100E-04  1.69843229398649660E-04
  1.71979594229145275E-04  1.74142831221134716E-04  1.76333278384798511E-04
  1.78551277981962934E-04  1.80797176579577414E-04  1.83071325103867014E-04
  1.85374078895165931E-04  1.87705797763438378E-04  1.90066846044501946E-04
  1.92457592656953967E-04  1.94878411159816453E-04  1.97329679810906238E-04
  1.99811781625936489E-04  2.02325104438366157E-04  2.04870040959997989E-04
  2.07446988842340956E-04  2.10056350738745091E-04  2.12698534367314736E-04
  2.15373952574617994E-04  2.18083023400192746E-04  2.20826170141866961E-04
  2.23603821421900558E-04  2.26416411253956435E-04  2.29264379110918703E-04
  2.32148169993559079E-04  2.35068234500069841E-04  2.38025028896471694E-04
  2.41019015187903890E-04  2.44050661190816395E-04  2.47120440606064904E-04
  2.50228833092928373E-04  2.53376324344057506E-04  2.56563406161363077E-04
  2.59790576532863908E-04  2.63058339710496103E-04  2.66367206288904083E-04
  2.69717693285223548E-04  2.73110324219863216E-04  2.76545629198309776E-04
  2.80024144993954967E-04  2.83546415131968811E-04  2.87112989974227172E-04
  2.90724426805304441E-04  2.94381289919553723E-04  2.98084150709276331E-04
  3.01833587754004045E-04  3.05630186910903678E-04  3.09474541406317360E-04
  3.13367251928456825E-04  3.17308926721260797E-04  3.21300181679434792E-04
  3.25341640444686637E-04  3.29433934503170500E-04  3.33577703284159202E-04
  3.37773594259955189E-04  3.42022263047059869E-04  3.46324373508615435E-04
  3.50680597858134008E-04  3.55091616764533359E-04  3.59558119458491603E-04
  3.64080803840141772E-04  3.68660376588120264E-04  3.73297553269985843E-04
  3.77993058454029836E-04  3.82747625822490089E-04  3.87561998286191042E-04
  3.92436928100625400E-04  3.97373176983494393E-04  4.02371516233729267E-04
  4.07432726852006912E-04  4.12557599662783270E-04  4.17746935437862134E-04
  4.23001545021515655E-04  4.28322249457182311E-04  4.33709880115755073E-04
  4.39165278825485365E-04  4.44689298003520959E-04  4.50282800789096854E-04
  4.55946661178403682E-04  4.61681764161150400E-04  4.67489005858845875E-04
  4.73369293664820774E-04  4.79323546386007976E-04  4.85352694386509431E-04
  4.91457679732966576E-04  4.97639456341760085E-04  5.03898990128062783E-04
  5.10237259156762972E-04  5.16655253795292595E-04  5.23153976868370859E-04
  5.29734443814699639E-04  5.36397682845627896E-04  5.43144735105810061E-04
  5.49976654835889270E-04  5.56894509537222797E-04  5.63899380138682010E-04
  5.70992361165550250E-04  5.78174560910543365E-04  5.85447101606984335E-04
  5.92811119604152699E-04  6.00267765544842610E-04  6.07818204545153371E-04
  6.15463616376539773E-04  6.23205195650155847E-04  6.31044152003512951E-04
  6.38981710289489714E-04  6.47019110767717894E-04  6.55157609298373761E-04
  6.63398477538411423E-04  6.71743003140259031E-04  6.80192489953018839E-04
  6.88748258226196380E-04  6.97411644815990853E-04  7.06184003394182938E-04
  7.15066704659648002E-04  7.24061136552530261E-04  7.33168704471113034E-04
  7.42390831491412397E-04  7.51728958589538594E-04  7.61184544866848833E-04
  7.70759067777936134E-04  7.80454023361485468E-04  7.90270926474030883E-04
  8.00211311026656795E-04  8.10276730224673229E-04  8.20468756810308086E-04
  8.30788983308450454E-04  8.41239022275488881E-04  8.51820506551271943E-04
  8.62535089514245945E-04  8.73384445339797752E-04  8.84370269261847510E-04
  8.95494277837735717E-04  9.06758209216433262E-04  9.18163823410134616E-04
  9.29712902569262783E-04  9.41407251260932098E-04  9.53248696750919728E-04
  9.65239089289174151E-04  9.77380302398924393E-04  9.89674233169420036E-04
  1.00212280255235512E-03  1.01472795566202498E-03  1.02749166207924685E-03
  1.04041591615911693E-03  1.05350273734262923E-03  1.06675417047221843E-03
  1.08017228611127303E-03  1.09375918086765996E-03  1.10751697772132796E-03
  1.12144782635602573E-03  1.13555390349519389E-03  1.14983741324208651E-03
  1.16430058742416080E-03  1.17894568594180795E-03  1.19377499712146709E-03
  1.20879083807317982E-03  1.22399555505264628E-03  1.23939152382782818E-03
  1.25498115005016962E-03  1.27076686963048546E-03  1.28675114911957524E-03
  1.30293648609363169E-03  1.31932540954448523E-03  1.33592048027476830E-03
  1.35272429129804561E-03  1.36973946824397617E-03  1.38696866976857755E-03
  1.40441458796963987E-03  1.42207994880737634E-03  1.43996751253035789E-03
  1.45808007410680777E-03  1.47642046366132525E-03  1.49499154691709038E-03
  1.51379622564364524E-03  1.53283743811029934E-03  1.55211815954523890E-03
  1.57164140260041755E-03  1.59141021782228161E-03  1.61142769412842999E-03
  1.63169695929026091E-03  1.65222118042169272E-03  1.67300356447403712E-03
  1.69404735873708275E-03  1.71535585134649699E-03  1.73693237179760296E-03
  1.75878029146561850E-03  1.78090302413244032E-03  1.80330402652005973E-03
  1.82598679883067341E-03  1.84895488529360349E-03  1.87221187471908854E-03
  1.89576140105904159E-03  1.91960714397486809E-03  1.94375282941241178E-03
  1.96820223018414741E-03  1.99295916655868773E-03  2.01802750685770764E-03
  2.04341116806038480E-03  2.06911411641542368E-03  2.09514036806079810E-03
  2.12149398965127793E-03  2.14817909899385224E-03  2.17519986569115033E-03
  2.20256051179294103E-03  2.23026531245584412E-03  2.25831859661132809E-03
  2.28672474764211528E-03  2.31548820406710185E-03  2.34461346023487078E-03
  2.37410506702595428E-03  2.40396763256391565E-03  2.43420582293537267E-03
  2.46482436291909539E-03  2.49582803672424849E-03  2.52722168873794218E-03
  2.55901022428217271E-03  2.59119861038029217E-03  2.62379187653311984E-03
  2.65679511550480233E-03  2.69021348411857455E-03  2.72405220406252147E-03
  2.75831656270547837E-03  2.79301191392319860E-03  2.82814367893489656E-03
  2.86371734715033105E-03  2.89973847702753619E-03  2.93621269694133765E-03
  2.97314570606281017E-03  3.01054327524976706E-03  3.04841124794847946E-03
  3.08675554110672459E-03  3.12558214609831835E-03  3.16489712965928836E-03
  3.20470663483580099E-03  3.24501688194403330E-03  3.28583416954210785E-03
  3.32716487541425115E-03  3.36901545756735071E-03  3.41139245524001026E-03
  3.45430248992433355E-03  3.49775226640053945E-03  3.54174857378460007E-03
  3.58629828658906186E-03  3.63140836579718251E-03  3.67708585995061730E-03
  3.72333790625075907E-03  3.77017173167393856E-03  3.81759465410066957E-03
  3.86561408345906026E-03  3.91423752288264440E-03  3.96347256988275731E-03
  4.01332691753565791E-03  4.06380835568460452E-03  4.11492477215701005E-03
  4.16668415399694316E-03  4.21909458871312301E-03  4.27216426554260110E-03
  4.32590147673035923E-03  4.38031461882497190E-03  4.43541219399059411E-03
  4.49120281133544557E-03  4.54769518825698556E-03  4.60489815180405333E-03
  4.66282064005607826E-03  4.72147170351969441E-03  4.78086050654289406E-03
  4.84099632874697254E-03  4.90188856647650641E-03  4.96354673426752189E-03
  5.02598046633418068E-03  5.08919951807414086E-03  5.15321376759285323E-03
  5.21803321724705060E-03  5.28366799520761394E-03  5.35012835704213457E-03
  5.41742468731736416E-03  5.48556750122181774E-03  5.55456744620881626E-03
  5.62443530366014011E-03  5.69518199057066337E-03  5.76681856125415074E-03
  5.83935620907051305E-03  5.91280626817481010E-03  5.98718021528820733E-03
  6.06248967149125573E-03  6.13874640403970669E-03  6.21596232820315845E-03
  6.29414950912687236E-03  6.37332016371693327E-03  6.45348666254919566E-03
  6.53466153180220274E-03  6.61685745521441854E-03  6.70008727606612002E-03
  6.78436399918613993E-03  6.86970079298392881E-03  6.95611099150713567E-03
  7.04360809652507767E-03  7.13220577963843885E-03  7.22191788441545537E-03
  7.31275842855501693E-03  7.40474160607696320E-03  7.49788178953991573E-03
  7.59219353228705006E-03  7.68769157072004151E-03  7.78439082660168855E-03
  7.88230640938745834E-03  7.98145361858636389E-03  8.08184794615157513E-03
  8.18350507890102004E-03  8.28644090096851416E-03  8.39067149628567807E-03
  8.49621315109508335E-03  8.60308235649503462E-03  8.71129581101629490E-03
  8.82087042323129698E-03  8.93182331439612912E-03  9.04417182112576129E-03
  9.15793349810296517E-03  9.27312612082120680E-03  9.38976768836215052E-03
  9.50787642620802738E-03  9.62747078908941963E-03  9.74856946386885512E-03
  9.87119137246064010E-03  9.99535567478746639E-03  1.01210817717741867E-02
  1.02483893083792389E-02  1.03772981766642441E-02  1.05078285189021299E-02
  1.06400007307244394E-02  1.07738354643081725E-02  1.09093536316027338E-02
  1.10465764075974946E-02  1.11855252336303754E-02  1.13262218207381415E-02
  1.14686881530487728E-02  1.16129464912165369E-02  1.17590193759002856E-02
  1.19069296312854303E-02  1.20567003686502996E-02  1.22083549899773183E-02
  1.23619171916096015E-02  1.25174109679535989E-02  1.26748606152282100E-02
  1.28342907352611574E-02  1.29957262393330560E-02  1.31591923520698473E-02
  1.33247146153842450E-02  1.34923188924666419E-02  1.36620313718263213E-02
  1.38338785713834692E-02  1.40078873426126259E-02  1.41840848747383456E-02
  1.43624986989834905E-02  1.45431566928710815E-02  1.47260870845802149E-02
  1.49113184573567582E-02  1.50988797539795896E-02  1.52888002812828910E-02
  1.54811097147354478E-02  1.56758381030774954E-02  1.58730158730158721E-02
  1.60726738339783265E-02  1.62748431829274481E-02  1.64795555092353274E-02
  1.66868427996194404E-02  1.68967374431406234E-02  1.71092722362639962E-02
  1.73244803879833639E-02  1.75423955250102875E-02  1.77630516970282738E-02
  1.79864833820131166E-02  1.82127254916201985E-02  1.84418133766394224E-02
  1.86737828325189079E-02  1.89086701049580794E-02  1.91465118955711222E-02
  1.93873453676217458E-02  1.96312081518299243E-02  1.98781383522518250E-02
  2.01281745522336568E-02  2.03813558204403410E-02  2.06377217169601800E-02
  2.08973122994860622E-02  2.11601681295746566E-02  2.14263302789841903E-02
  2.16958403360920059E-02  2.19687404123928842E-02  2.22450731490789477E-02
  2.25248817237025077E-02  2.28082098569226260E-02  2.30951018193365290E-02
  2.33856024383970774E-02  2.36797571054169972E-02  2.39776117826614836E-02
  2.42792130105298383E-02  2.45846079148275103E-02  2.48938442141296706E-02
  2.52069702272372069E-02  2.55240348807267252E-02  2.58450877165954142E-02
  2.61701789000020335E-02  2.64993592271054457E-02  2.68326801330014582E-02
  2.71701936997597662E-02  2.75119526645618458E-02  2.78580104279412474E-02
  2.82084210621275991E-02  2.85632393194953857E-02  2.89225206411192065E-02
  2.92863211654365262E-02  2.96546977370194011E-02  3.00277079154566695E-02
  3.04054099843475666E-02  3.07878629604088107E-02  3.11751266026960086E-02
  3.15672614219411410E-02  3.19643286900075721E-02  3.23663904494637389E-02
  3.27735095232775803E-02  3.31857495246326503E-02  3.36031748668678548E-02
  3.40258507735422128E-02  3.44538432886260793E-02  3.48872192868206824E-02
  3.53260464840074451E-02  3.57703934478287092E-02  3.62203296084016510E-02
  3.66759252691667426E-02  3.71372516178728879E-02  3.76043807377006573E-02
  3.80773856185253681E-02  3.85563401683220452E-02  3.90413192247135027E-02
  3.95323985666640038E-02  4.00296549263198381E-02  4.05331660009988354E-02
  4.10430104653309036E-02  4.15592679835508211E-02  4.20820192219461542E-02
  4.26113458614614665E-02  4.31473306104610335E-02  4.36900572176524976E-02
  4.42396104851722483E-02  4.47960762818365027E-02  4.53595415565581847E-02
  4.59300943519327168E-02  4.65078238179953141E-02  4.70928202261502935E-02
  4.76851749832767000E-02  4.82849806460105627E-02  4.88923309352068403E-02
  4.95073207505840537E-02  5.01300461855518908E-02  5.07606045422265770E-02
  5.13990943466343386E-02  5.20456153641059294E-02  5.27002686148658958E-02
  5.33631563898163547E-02  5.40343822665209153E-02  5.47140511253885256E-02
  5.54022691660609745E-02  5.60991439240075135E-02  5.68047842873266734E-02
  5.75193005137609667E-02  5.82428042479245511E-02  5.89754085387476784E-02
  5.97172278571415013E-02  6.04683781138835308E-02  6.12289766777297309E-02
  6.19991423937532524E-02  6.27789956019139256E-02  6.35686581558623648E-02
  6.43682534419789953E-02  6.51779063986541451E-02  6.59977435358096998E-02
  6.68278929546660266E-02  6.76684843677590880E-02  6.85196491192070628E-02
  6.93815202052342345E-02  7.02542322949513964E-02  7.11379217513978535E-02
  7.20327266528493215E-02  7.29387868143919066E-02  7.38562438097693369E-02
  7.47852409935038792E-02  7.57259235232952826E-02  7.66784383827029126E-02
  7.76429344041112135E-02  7.86195622919859255E-02  7.96084746464216370E-02
  8.06098259869854200E-02  8.16237727768617666E-02  8.26504734472992136E-02
  8.36900884223664987E-02  8.47427801440187312E-02  8.58087130974788392E-02
  8.68880538369397604E-02  8.79809710115876803E-02  8.90876353919548419E-02
  9.02082198966023541E-02  9.13428996191385789E-02  9.24918518555790381E-02
  9.36552561320479066E-02  9.48332942328305034E-02  9.60261502287769880E-02
  9.72340105060632703E-02  9.84570637953154221E-02  9.96955012010978803E-02
  1.00949516231775074E-01  1.02219304829747046E-01  1.03505065402065277E-01
  1.04806998851435462E-01  1.06125308607607494E-01  1.07460200659163063E-01
  1.08811883585701319E-01  1.10180568590429143E-01  1.11566469533163501E-01
  1.12969802963745980E-01  1.14390788155880399E-01  1.15829647141394237E-01
  1.17286604744930953E-01  1.18761888619080727E-01  1.20255729279949972E-01
  1.21768360143181389E-01  1.23300017560425038E-01  1.24850940856268119E-01
  1.26421372365631446E-01  1.28011557471632925E-01  1.29621744643930892E-01
  1.31252185477547217E-01  1.32903134732178796E-01  1.34574850372006061E-01
  1.36267593605998355E-01  1.37981628928730171E-01  1.39717224161708148E-01
  1.41474650495218041E-01  1.43254182530700491E-01  1.45056098323655985E-01
  1.46880679427093486E-01  1.48728210935522798E-01  1.50598981529500409E-01
  1.52493283520738293E-01  1.54411412897775990E-01  1.56353669372231441E-01
  1.58320356425630582E-01  1.60311781356826250E-01  1.62328255330016019E-01
  1.64370093423360231E-01  1.66437614678215412E-01  1.68531142148984292E-01
  1.70651002953592923E-01  1.72797528324605543E-01  1.74971053660977843E-01
  1.77171918580466103E-01  1.79400466972691908E-01  1.81657047052874943E-01
  1.83942011416244472E-01  1.86255717093130380E-01  1.88598525604752293E-01
  1.90970803019706981E-01  1.93372920011166238E-01  1.95805251914797890E-01
  1.98268178787409738E-01  2.00762085466336865E-01  2.03287361629572089E-01
  2.05844401856652925E-01  2.08433605690317936E-01  2.11055377698933150E-01
  2.13710127539709666E-01  2.16398270022710532E-01  2.19120225175668176E-01
  2.21876418309613438E-01  2.24667280085330295E-01  2.27493246580649983E-01
  2.30354759358586125E-01  2.33252265536332409E-01  2.36186217855124586E-01
  2.39157074750980830E-01  2.42165300426336189E-01  2.45211364922571839E-01
  2.48295744193463036E-01  2.51418920179546534E-01  2.54581380883423414E-01
  2.57783620446013606E-01  2.61026139223762887E-01  2.64309443866827698E-01
  2.67634047398238872E-01  2.71000469294061297E-01  2.74409235564566090E-01
  2.77860878836417302E-01  2.81355938435899067E-01  2.84894960473185022E-01
  2.88478497927667721E-01  2.92107110734366238E-01  2.95781365871412960E-01
  2.99501837448648944E-01  3.03269106797328047E-01  3.07083762560949491E-01
  3.10946400787238397E-01  3.14857625021275123E-01  3.18818046399804267E-01
  3.22828283746724232E-01  3.26888963669778321E-01  3.31000720658467196E-01
  3.35164197183184576E-01  3.39380043795608599E-01  3.43648919230350403E-01
  3.47971490507880510E-01  3.52348433038756570E-01  3.56780430729152775E-01
  3.61268176087725879E-01  3.65812370333819081E-01  3.70413723507027337E-01
  3.75072954578146822E-01  3.79790791561510355E-01  3.84567971628745675E-01
  3.89405241223958309E-01  3.94303356180362663E-01  3.99263081838387268E-01
  4.04285193165255463E-01  4.09370474876080359E-01  4.14519721556476095E-01
  4.19733737786711136E-01  4.25013338267431040E-01  4.30359347946950910E-01
  4.35772602150160282E-01  4.41253946709042721E-01  4.46804238094835771E-01
  4.52424343551862174E-01  4.58115141233032319E-01  4.63877520337062588E-01
  4.69712381247412381E-01  4.75620635672968639E-01  4.81603206790507277E-01
  4.87661029388935463E-01  4.93795050015359727E-01  5.00006227122983593E-01
  5.06295531220865125E-01  5.12663945025567003E-01  5.19112463614701203E-01
  5.25642094582417618E-01  5.32253858196840679E-01  5.38948787559484943E-01
  5.45727928766686188E-01  5.52592341073048443E-01  5.59543097056960925E-01
  5.66581282788189089E-01  5.73707997997570440E-01  5.80924356248857743E-01
  5.88231485112707841E-01  5.95630526342873057E-01  6.03122636054600036E-01
  6.10708984905272034E-01  6.18390758277333696E-01  6.26169156463500909E-01
  6.34045394854316435E-01  6.42020704128054565E-01  6.50096330443012738E-01
  6.58273535632235118E-01  6.66553597400666775E-01  6.74937809524806087E-01
  6.83427482054856594E-01  6.92023941519420815E-01  7.00728531132782329E-01
  7.09542611004775559E-01  7.18467558353313662E-01  7.27504767719579615E-01
  7.36655651185920246E-01  7.45921638596497627E-01  7.55304177780693697E-01
  7.64804734779346296E-01  7.74424794073816813E-01  7.84165858817939543E-01
  7.94029451072901793E-01  8.04017112045058213E-01  8.14130402326757152E-01
  8.24370902140182382E-01  8.34740211584261149E-01  8.45239950884693614E-01
  8.55871760647104241E-01  8.66637302113400620E-01  8.77538257421341061E-01
  8.88576329867367565E-01  8.99753244172759814E-01  9.11070746753114835E-01
  9.22530605991237929E-01  9.34134612513451756E-01  9.45884579469380760E-01
  9.57782342815270749E-01  9.69829761600847218E-01  9.82028718259807643E-01
  9.94381118903951089E-01  1.00688889362100542E+00  1.01955399677622149E+00
  1.03237840731773045E+00  1.04536412908577292E+00  1.05851319112579700E+00
  1.07182764800549446E+00  1.08530958013584478E+00  1.09896109409616893E+00
  1.11278432296329921E+00  1.12678142664487191E+00  1.14095459221681073E+00
  1.15530603426507539E+00  1.16983799523167997E+00  1.18455274576509373E+00
  1.19945258507502661E+00  1.21453984129168080E+00  1.22981687182953925E+00
  1.24528606375570083E+00  1.26094983416287820E+00  1.27681063054706856E+00
  1.29287093118997043E+00  1.30913324554623989E+00  1.32560011463557581E+00
  1.34227411143977782E+00  1.35915784130477246E+00  1.37625394234769693E+00
  1.39356508586912575E+00  1.41109397677044957E+00  1.42884335397653661E+00
  1.44681599086368951E+00  1.46501469569298237E+00  1.48344231204907540E+00
  1.50210171928451031E+00  1.52099583296963292E+00  1.54012760534814985E+00
  1.55950002579841374E+00  1.57911612130053891E+00  1.59897895690935110E+00
  1.61909163623332852E+00  1.63945730191953731E+00  1.66007913614467029E+00
  1.68096036111228608E+00  1.70210423955626289E+00  1.72351407525062861E+00
  1.74519321352577150E+00  1.76714504179114851E+00  1.78937299006459249E+00
  1.81188053150823869E+00  1.83467118297123277E+00  1.85774850553923665E+00
  1.88111610509084648E+00  1.90477763286104063E+00  1.92873678601166620E+00
  1.95299730820915141E+00  1.97756299020945159E+00  2.00243767045035215E+00
  2.02762523565125452E+00  2.05312962142045974E+00  2.07895481287013650E+00
  2.10510484523899466E+00  2.13158380452278617E+00  2.15839582811277975E+00
  2.18554510544220193E+00  2.21303587864087570E+00  2.24087244319804757E+00
  2.26905914863355562E+00  2.29760039917747827E+00  2.32650065445827270E+00
  2.35576443019962856E+00  2.38539629892604754E+00  2.41540089067729546E+00
  2.44578289373188751E+00  2.47654705533960495E+00  2.50769818246329290E+00
  2.53924114252994748E+00  2.57118086419124348E+00  2.60352233809368228E+00
  2.63627061765835080E+00  2.66943081987056274E+00  2.70300812607938346E+00
  2.73700778280721169E+00  2.77143510256959447E+00  2.80629546470527691E+00
  2.84159431621677250E+00  2.87733717262145028E+00  2.91352961881333306E+00
  2.95017730993578287E+00  2.98728597226508708E+00  3.02486140410523818E+00
  3.06290947669391400E+00  3.10143613511985627E+00  3.14044739925183691E+00
  3.17994936467923539E+00  3.21994820366452217E+00  3.26045016610767213E+00
  3.30146158052270833E+00  3.34298885502658338E+00  3.38503847834041371E+00
  3.42761702080339870E+00  3.47073113539943146E+00  3.51438755879662157E+00
  3.55859311239995701E+00  3.60335470341711295E+00  3.64867932593775945E+00
  3.69457406202638561E+00  3.74104608282886675E+00  3.78810264969301347E+00
  3.83575111530312318E+00  3.88399892482889486E+00  3.93285361708873538E+00
  3.98232282572769192E+00  4.03241428041027383E+00  4.08313580802817366E+00
  4.13449533392328217E+00  4.18650088312601998E+00  4.23916058160923992E+00
  4.29248265755798375E+00  4.34647544265508845E+00  4.40114737338307904E+00
  4.45650699234237369E+00  4.51256294958604620E+00  4.56932400397148175E+00
  4.62679902452889191E+00  4.68499699184717944E+00  4.74392699947715180E+00
  4.80359825535237839E+00  4.86402008322800938E+00  4.92520192413756241E+00
  4.98715333786816206E+00  5.04988400445425523E+00  5.11340372569010349E+00
  5.17772242666140148E+00  5.24285015729601422E+00  5.30879709393436539E+00
  5.37557354091948536E+00  5.44318993220705405E+00  5.51165683299579534E+00
  5.58098494137823486E+00  5.65118509001236635E+00  5.72226824781424970E+00
  5.79424552167188711E+00  5.86712815818078148E+00  5.94092754540114587E+00
  6.01565521463738939E+00  6.09132284223987686E+00  6.16794225142934582E+00
  6.24552541414438789E+00  6.32408445291199950E+00  6.40363164274182672E+00
  6.48417941304413592E+00  6.56574034957188601E+00  6.64832719638736958E+00
  6.73195285785340580E+00  6.81663040064974446E+00  6.90237305581474025E+00
  6.98919422081268138E+00  7.07710746162726245E+00  7.16612651488119834E+00
  7.25626528998268228E+00  7.34753787129872293E+00  7.43995852035582583E+00
  7.53354167806845876E+00  7.62830196699538643E+00  7.72425419362455923E+00
  7.82141335068661547E+00  7.91979461949749286E+00  8.01941337233062690E+00
  8.12028517481879675E+00  8.22242578838638138E+00  8.32585117271207054E+00
  8.43057748822255704E+00  8.53662109861773644E+00  8.64399857342745115E+00
  8.75272669060061581E+00  8.86282243912676115E+00  8.97430302169055771E+00
  9.08718585735987006E+00  9.20148858430740368E+00  9.31722906256680616E+00
  9.43442537682330595E+00  9.55309583923940053E+00  9.67325899231631858E+00
  9.79493361179116917E+00  9.91813870957080823E+00  1.00428935367024454E+01
  1.01692175863816008E+01  1.02971305969980786E+01  1.04266525552199969E+01
  1.05578036991168549E+01  1.06906045213217364E+01  1.08250757722332622E+01
  1.09612384632580060E+01  1.10991138700934258E+01  1.12387235360523707E+01
  1.13800892754292047E+01  1.15232331769082759E+01  1.16681776070154584E+01
  1.18149452136128090E+01  1.19635589294374807E+01  1.21140419756849465E+01
  1.22664178656373011E+01  1.24207104083374062E+01  1.25769437123089212E+01
  1.27351421893234757E+01  1.28953305582149831E+01  1.30575338487419437E+01
  1.32217774054985515E+01  1.33880868918746589E+01  1.35564882940658968E+01
  1.37270079251339965E+01  1.38996724291181888E+01  1.40745087851985584E+01
  1.42515443119114025E+01  1.44308066714179724E+01  1.46123238738266821E+01
  1.47961242815696554E+01  1.49822366138345995E+01
                               </PP_R> 