<UPF version="2.0.1">
   <PP_INFO>
         UPF file from ATOMPAW code with following input
           Gd  64
           GGA-PBESOL  loggrid 2001 scalarrelativistic logderivrange -8 8 500
           6 5 5 4 0
           5 2 1
           4 3 7
           0 0 0
           c
           c
           c
           c
           v
           v
           c
           c
           c
           v
           c
           c
           v
           v
           3
           2.417 2.014 2.417 2.417
           n
           y
           2.0
           n
           y
           2.0
           n
           y
           2.0
           n
           VANDERBILT BESSELSHAPE
           4 0.0
           2.377
           2.377
           2.377
           2.377
           2.377
           2.377
           2.377
           2.377
           PWSCFOUT
           UPFDX  0.0125d0  UPFXMIN  -7.d0  UPFZMESH  64.0
           END
  </PP_INFO>
  <!--                               -->
  <!-- END OF HUMAN READABLE SECTION -->
  <PP_HEADER generated="Generated using ATOMPAW code"
             author="   "
             date=" 11/23/2022, 16:00:45.602"
             element="Gd"
             pseudo_type="PAW"
             relativistic="scalar"
             is_ultrasoft="T"
             is_paw="T"
             is_coulomb="F"
             has_so="F"
             has_wfc="T"
             has_gipaw="T"
             paw_as_gipaw="T"
             core_correction="T"
             functional="SLA PW PSX PSC"
             z_valence="18.000"
             l_max="3"
             l_max_rho="6"
             mesh_size="  1110"
             number_of_wfc="     8"
             number_of_proj=" 8"
                                    /> 
<PP_MESH dx=" 1.2500000000000E-02" mesh="  1110" xmin="-7.0000000000000E+00" zmesh=" 6.4000000000000E+01">
 <PP_R type="real" size="  1110" columns="3">
  1.42481557117893163E-05  1.44273754479534725E-05  1.46088494908840961E-05
  1.47926061962695933E-05  1.49786742764690603E-05  1.51670828049985764E-05
  1.53578612210740415E-05  1.55510393342111141E-05  1.57466473288829758E-05
  1.59447157692367905E-05  1.61452756038693285E-05  1.63483581706627894E-05
  1.65539952016814084E-05  1.67622188281296379E-05  1.69730615853727793E-05
  1.71865564180205973E-05  1.74027366850750508E-05  1.76216361651426926E-05
  1.78432890617126172E-05  1.80677300085009025E-05  1.82949940748621005E-05
  1.85251167712689506E-05  1.87581340548609506E-05  1.89940823350627295E-05
  1.92329984792731406E-05  1.94749198186257737E-05  1.97198841538221017E-05
  1.99679297610378816E-05  2.02190953979038750E-05  2.04734203095618761E-05
  2.07309442347967422E-05  2.09917074122457314E-05  2.12557505866858417E-05
  2.15231150154002669E-05  2.17938424746249809E-05  2.20679752660762755E-05
  2.23455562235605377E-05  2.26266287196671181E-05  2.29112366725453598E-05
  2.31994245527669819E-05  2.34912373902745682E-05  2.37867207814176808E-05
  2.40859208960773481E-05  2.43888844848801913E-05  2.46956588865033916E-05
  2.50062920350713174E-05  2.53208324676454171E-05  2.56393293318082194E-05
  2.59618323933427174E-05  2.62883920440084560E-05  2.66190593094152184E-05
  2.69538858569959743E-05  2.72929240040799949E-05  2.76362267260675106E-05
  2.79838476647073400E-05  2.83358411364783627E-05  2.86922621410766738E-05
  2.90531663700093908E-05  2.94186102152965210E-05  2.97886507782824456E-05
  3.01633458785579578E-05  3.05427540629947983E-05  3.09269346148936984E-05
  3.13159475632474854E-05  3.17098536921208441E-05  3.21087145501477956E-05
  3.25125924601488961E-05  3.29215505288692829E-05  3.33356526568391888E-05
  3.37549635483586641E-05  3.41795487216075796E-05  3.46094745188830764E-05
  3.50448081169656774E-05  3.54856175376157328E-05  3.59319716582021253E-05
  3.63839402224642777E-05  3.68415938514098890E-05  3.73050040543495848E-05
  3.77742432400703665E-05  3.82493847281497348E-05  3.87305027604118514E-05
  3.92176725125281022E-05  3.97109701057634114E-05  4.02104726188703122E-05
  4.07162581001327861E-05  4.12284055795612744E-05  4.17469950812414151E-05
  4.22721076358379167E-05  4.28038252932557559E-05  4.33422311354607595E-05
  4.38874092894611369E-05  4.44394449404526181E-05  4.49984243451287972E-05
  4.55644348451588699E-05  4.61375648808351032E-05  4.67179040048915675E-05
  4.73055428964971146E-05  4.79005733754241109E-05  4.85030884163954477E-05
  4.91131821636121930E-05  4.97309499454635451E-05  5.03564882894222865E-05
  5.09898949371273167E-05  5.16312688596559682E-05  5.22807102729886254E-05
  5.29383206536673692E-05  5.36042027546521015E-05  5.42784606213758377E-05
  5.49611996080020068E-05  5.56525263938864012E-05  5.63525490002457889E-05
  5.70613768070366172E-05  5.77791205700458130E-05  5.85058924381965675E-05
  5.92418059710719976E-05  5.99869761566588057E-05  6.07415194293145359E-05
  6.15055536879606756E-05  6.22791983145045390E-05  6.30625741924930997E-05
  6.38558037260010406E-05  6.46590108587568246E-05  6.54723210935090534E-05
  6.62958615116365671E-05  6.71297607930053093E-05  6.79741492360745175E-05
  6.88291587782563453E-05  6.96949230165312764E-05  7.05715772283229054E-05
  7.14592583926355163E-05  7.23581052114569655E-05  7.32682581314314220E-05
  7.41898593658043382E-05  7.51230529166435255E-05  7.60679845973400489E-05
  7.70248020553914353E-05  7.79936547954721400E-05  7.89746942027939701E-05
  7.99680735667601775E-05  8.09739481049175720E-05  8.19924749872091347E-05
  8.30238133605324302E-05  8.40681243736065697E-05  8.51255712021519524E-05
  8.61963190743870555E-05  8.72805352968453066E-05  8.83783892805173126E-05
  8.94900525673216423E-05  9.06156988569084586E-05  9.17555040338008127E-05
  9.29096461948764719E-05  9.40783056771962316E-05  9.52616650861818422E-05
  9.64599093241484559E-05  9.76732256191962703E-05  9.89018035544647964E-05
  1.00145835097755986E-04  1.01405514631529485E-04  1.02681038983275201E-04
  1.03972607456268338E-04  1.05280421860710422E-04  1.06604686545262926E-04
  1.07945608428977065E-04  1.09303397033625168E-04  1.10678264516439459E-04
  1.12070425703260921E-04  1.13480098122107679E-04  1.14907502037163065E-04
  1.16352860483192783E-04  1.17816399300394939E-04  1.19298347169686901E-04
  1.20798935648438601E-04  1.22318399206652710E-04  1.23856975263601473E-04
  1.25414904224924390E-04  1.26992429520190797E-04  1.28589797640937971E-04
  1.30207258179184515E-04  1.31845063866430166E-04  1.33503470613146040E-04
  1.35182737548759907E-04  1.36883127062147313E-04  1.38604904842629036E-04
  1.40348339921486187E-04  1.42113704713997253E-04  1.43901275062002191E-04
  1.45711330277005101E-04  1.47544153183815806E-04  1.49400030164742258E-04
  1.51279251204338946E-04  1.53182109934716059E-04  1.55108903681422058E-04
  1.57059933509899781E-04  1.59035504272529195E-04  1.61035924656261707E-04
  1.63061507230851630E-04  1.65112568497697730E-04  1.67189428939295746E-04
  1.69292413069314869E-04  1.71421849483304497E-04  1.73578070910036033E-04
  1.75761414263494764E-04  1.77972220695521519E-04  1.80210835649119086E-04
  1.82477608912428950E-04  1.84772894673384652E-04  1.87097051575056591E-04
  1.89450442771689048E-04  1.91833435985444312E-04  1.94246403563860820E-04
  1.96689722538031224E-04  1.99163774681516693E-04  2.01668946569998010E-04
  2.04205629641679372E-04  2.06774220258452193E-04  2.09375119767825439E-04
  2.12008734565639591E-04  2.14675476159564740E-04  2.17375761233400301E-04
  2.20110011712183366E-04  2.22878654828113367E-04  2.25682123187310611E-04
  2.28520854837409721E-04  2.31395293336006245E-04  2.34305887819964329E-04
  2.37253093075592901E-04  2.40237369609709887E-04  2.43259183721595157E-04
  2.46319007575851348E-04  2.49417319276181598E-04  2.52554602940091783E-04
  2.55731348774537932E-04  2.58948053152519605E-04  2.62205218690639980E-04
  2.65503354327641930E-04  2.68842975403927860E-04  2.72224603742086165E-04
  2.75648767728424427E-04  2.79116002395531787E-04  2.82626849505879880E-04
  2.86181857636471542E-04  2.89781582264560700E-04  2.93426585854443902E-04
  2.97117437945347747E-04  3.00854715240420794E-04  3.04639001696843670E-04
  3.08470888617074705E-04  3.12350974741241094E-04  3.16279866340693613E-04
  3.20258177312738408E-04  3.24286529276558472E-04  3.28365551670344231E-04
  3.32495881849643364E-04  3.36678165186949545E-04  3.40913055172543326E-04
  3.45201213516600671E-04  3.49543310252587521E-04  3.53940023841952680E-04
  3.58392041280139538E-04  3.62900058203930863E-04  3.67464779000142296E-04
  3.72086916915685619E-04  3.76767194169013678E-04  3.81506342062969302E-04
  3.86305101099053102E-04  3.91164221093127310E-04  3.96084461292577268E-04
  4.01066590494944281E-04  4.06111387168052299E-04  4.11219639571645530E-04
  4.16392145880554456E-04  4.21629714309413835E-04  4.26933163238946394E-04
  4.32303321343837157E-04  4.37741027722215971E-04  4.43247132026767198E-04
  4.48822494597491144E-04  4.54467986596132439E-04  4.60184490142301404E-04
  4.65972898451307970E-04  4.71834115973726576E-04  4.77769058536720243E-04
  4.83778653487138943E-04  4.89863839836420130E-04  4.96025568407311760E-04
  5.02264801982438562E-04  5.08582515454741109E-04  5.14979695979802588E-04
  5.21457343130094994E-04  5.28016469051164955E-04  5.34658098619781750E-04
  5.41383269604078527E-04  5.48193032825703731E-04  5.55088452324015071E-04
  5.62070605522338560E-04  5.69140583396316162E-04  5.76299490644375232E-04
  5.83548445860337830E-04  5.90888581708204417E-04  5.98321045099135329E-04
  6.05846997370656387E-04  6.13467614468122136E-04  6.21184087128458088E-04
  6.28997621066216422E-04  6.36909437161972268E-04  6.44920771653086696E-04
  6.53032876326873702E-04  6.61247018716192448E-04  6.69564482297502921E-04
  6.77986566691412109E-04  6.86514587865740943E-04  6.95149878341148777E-04
  7.03893787399340965E-04  7.12747681293896961E-04  7.21712943463751898E-04
  7.30790974749359070E-04  7.39983193611577013E-04  7.49291036353304284E-04
  7.58715957343905839E-04  7.68259429246462245E-04  7.77922943247874132E-04
  7.87708009291865265E-04  7.97616156314912743E-04  8.07648932485147044E-04
  8.17807905444255961E-04  8.28094662552434388E-04  8.38510811136408359E-04
  8.49057978740585823E-04  8.59737813381363414E-04  8.70551983804631192E-04
  8.81502179746521098E-04  8.92590112197426443E-04  9.03817513669351313E-04
  9.15186138466618070E-04  9.26697762959980006E-04  9.38354185864186639E-04
  9.50157228519030823E-04  9.62108735173941186E-04  9.74210573276147783E-04
  9.86464633762474622E-04  9.98872831354805785E-04  1.01143710485925866E-03
  1.02415941746913063E-03  1.03704175707165064E-03  1.05008613655858994E-03
  1.06329459414078432E-03  1.07666919366660287E-03  1.09021202494443228E-03
  1.10392520406921288E-03  1.11781087375308150E-03  1.13187120366017900E-03
  1.14610839074565833E-03  1.16052465959896726E-03  1.17512226279144422E-03
  1.18990348122828635E-03  1.20487062450494865E-03  1.22002603126801826E-03
  1.23537206958063573E-03  1.25091113729250913E-03  1.26664566241458179E-03
  1.28257810349841875E-03  1.29871095002035255E-03  1.31504672277047503E-03
  1.33158797424651372E-03  1.34833728905266398E-03  1.36529728430344354E-03
  1.38247061003261428E-03  1.39985994960726114E-03  1.41746802014707115E-03
  1.43529757294888895E-03  1.45335139391661707E-03  1.47163230399651075E-03
  1.49014315961796336E-03  1.50888685313982601E-03  1.52786631330234447E-03
  1.54708450568478593E-03  1.56654443316880856E-03  1.58624913640767321E-03
  1.60620169430135060E-03  1.62640522447760386E-03  1.64686288377913020E-03
  1.66757786875681578E-03  1.68855341616920801E-03  1.70979280348826541E-03
  1.73129934941146824E-03  1.75307641438037084E-03  1.77512740110568387E-03
  1.79745575509894420E-03  1.82006496521089096E-03  1.84295856417660280E-03
  1.86614012916749405E-03  1.88961328235026085E-03  1.91338169145284292E-03
  1.93744907033752004E-03  1.96181917958120804E-03  1.98649582706305608E-03
  2.01148286855944115E-03  2.03678420834643280E-03  2.06240379980984810E-03
  2.08834564606297669E-03  2.11461380057207347E-03  2.14121236778972617E-03
  2.16814550379617645E-03  2.19541741694872150E-03  2.22303236853927614E-03
  2.25099467346020739E-03  2.27930870087855340E-03  2.30797887491870088E-03
  2.33700967535367373E-03  2.36640563830510433E-03  2.39617135695200734E-03
  2.42631148224848464E-03  2.45683072365043224E-03  2.48773384985141168E-03
  2.51902568952776370E-03  2.55071113209310012E-03  2.58279512846228999E-03
  2.61528269182503999E-03  2.64817889842922181E-03  2.68148888837404457E-03
  2.71521786641320531E-03  2.74937110276814861E-03  2.78395393395153897E-03
  2.81897176360110724E-03  2.85443006332398086E-03  2.89033437355162934E-03
  2.92669030440557889E-03  2.96350353657398938E-03  3.00077982219928464E-03
  3.03852498577693222E-03  3.07674492506553217E-03  3.11544561200836206E-03
  3.15463309366649167E-03  3.19431349316365775E-03  3.23449301064301226E-03
  3.27517792423590330E-03  3.31637459104286089E-03  3.35808944812688529E-03
  3.40032901351926568E-03  3.44309988723803112E-03  3.48640875231921591E-03
  3.53026237586110759E-03  3.57466761008160168E-03  3.61963139338888906E-03
  3.66516075146559091E-03  3.71126279836653337E-03  3.75794473763034660E-03
  3.80521386340501241E-03  3.85307756158760313E-03  3.90154331097833937E-03
  3.95061868444916350E-03  4.00031135012703272E-03  4.05062907259205653E-03
  4.10157971409074069E-03  4.15317123576448063E-03  4.20541169889349781E-03
  4.25830926615644763E-03  4.31187220290583147E-03  4.36610887845949140E-03
  4.42102776740832884E-03  4.47663745094047019E-03  4.53294661818211524E-03
  4.58996406755520208E-03  4.64769870815219879E-03  4.70615956112816099E-03
  4.76535576111030128E-03  4.82529655762531113E-03  4.88599131654459187E-03
  4.94744952154770913E-03  5.00968077560423261E-03  5.07269480247421467E-03
  5.13650144822756522E-03  5.20111068278249471E-03  5.26653260146335133E-03
  5.33277742657803019E-03  5.39985550901522695E-03  5.46777732986180372E-03
  5.53655350204045049E-03  5.60619477196799658E-03  5.67671202123455447E-03
  5.74811626830378647E-03  5.82041867023457872E-03  5.89363052442432901E-03
  5.96776327037420486E-03  6.04282849147658608E-03  6.11883791682498422E-03
  6.19580342304676488E-03  6.27373703615885601E-03  6.35265093344686456E-03
  6.43255744536779320E-03  6.51346905747669357E-03  6.59539841237758665E-03
  6.67835831169885652E-03  6.76236171809355482E-03  6.84742175726483701E-03
  6.93355172001687298E-03  7.02076506433158866E-03  7.10907541747146394E-03
  7.19849657810884506E-03  7.28904251848201071E-03  7.38072738657835452E-03
  7.47356550834506455E-03  7.56757138992754114E-03  7.66275971993603689E-03
  7.75914537174077906E-03  7.85674340579595176E-03  7.95556907199295761E-03
  8.05563781204319228E-03  8.15696526189088091E-03  8.25956725415621408E-03
  8.36345982060922311E-03  8.46865919467480049E-03  8.57518181396916580E-03
  8.68304432286830762E-03  8.79226357510868965E-03  8.90285663642067203E-03
  9.01484078719510563E-03  9.12823352518337544E-03  9.24305256823149124E-03
  9.35931585704852763E-03  9.47704155800989725E-03  9.59624806599590485E-03
  9.71695400726594292E-03  9.83917824236891191E-03  9.96293986909021524E-03
  1.00882582254358134E-02  1.02151528926538657E-02  1.03436436982942848E-02
  1.04737507193068697E-02  1.06054942851783567E-02  1.07388949811089412E-02
  1.08739736512287830E-02  1.10107514018549010E-02  1.11492496047891076E-02
  1.12894899006573853E-02  1.14314942022912779E-02  1.15752846981518435E-02
  1.17208838557965947E-02  1.18683144253901394E-02  1.20175994432589230E-02
  1.21687622354907012E-02  1.23218264215793245E-02  1.24768159181152700E-02
  1.26337549425227010E-02  1.27926680168434764E-02  1.29535799715687558E-02
  1.31165159495188668E-02  1.32815014097718512E-02  1.34485621316415352E-02
  1.36177242187056017E-02  1.37890141028843040E-02  1.39624585485705593E-02
  1.41380846568118727E-02  1.43159198695449706E-02  1.44959919738836488E-02
  1.46783291064605595E-02  1.48629597578236582E-02  1.50499127768878461E-02
  1.52392173754427058E-02  1.54309031327169079E-02  1.56250000000000000E-02
  1.58215383053224162E-02  1.60205487581942078E-02  1.62220624544035241E-02
  1.64261108808753872E-02  1.66327259205915519E-02  1.68419398575723710E-02
  1.70537853819211251E-02  1.72682955949320024E-02  1.74855040142622084E-02
  1.77054445791691613E-02  1.79281516558136324E-02  1.81536600426294298E-02
  1.83820049757607989E-02  1.86132221345681088E-02  1.88473476472028230E-02
  1.90844180962526574E-02  1.93244705244575814E-02  1.95675424404978919E-02
  1.98136718248550052E-02  2.00628971357459593E-02  2.03152573151326767E-02
  2.05707917948065935E-02  2.08295405025500542E-02  2.10915438683750636E-02
  2.13568428308405674E-02  2.16254788434492445E-02  2.18974938811245905E-02
  2.21729304467696564E-02  2.24518315779082094E-02  2.27342408534093945E-02
  2.30202024002971219E-02  2.33097609006448561E-02  2.36029615985573968E-02
  2.38998503072403098E-02  2.42004734161583301E-02  2.45048778982838930E-02
  2.48131113174366244E-02  2.51252218357153716E-02  2.54412582210236105E-02
  2.57612698546895030E-02  2.60853067391819231E-02  2.64134195059233107E-02
  2.67456594232010209E-02  2.70820784041780685E-02  2.74227290150046640E-02
  2.77676644830318550E-02  2.81169387051282693E-02  2.84706062561017187E-02
  2.88287223972265791E-02  2.91913430848784738E-02  2.95585249792776582E-02
  2.99303254533421353E-02  3.03068026016524231E-02  3.06880152495288827E-02
  3.10740229622233112E-02  3.14648860542262043E-02  3.18606655986908710E-02
  3.22614234369763692E-02  3.26672221883102659E-02  3.30781252595730435E-02
  3.34941968552056185E-02  3.39155019872412963E-02  3.43421064854641106E-02
  3.47740770076948313E-02  3.52114810502063835E-02  3.56543869582703760E-02
  3.61028639368360105E-02  3.65569820613436264E-02  3.70168122886740877E-02
  3.74824264682359076E-02  3.79538973531920107E-02  3.84312986118273553E-02
  3.89147048390598785E-02  3.94041915680960891E-02  3.98998352822332314E-02
  4.04017134268101069E-02  4.09099044213078397E-02  4.14244876716032481E-02
  4.19455435823761283E-02  4.24731535696725795E-02  4.30074000736266754E-02
  4.35483665713414306E-02  4.40961375899328045E-02  4.46507987197369630E-02
  4.52124366276837678E-02  4.57811390708391386E-02  4.63569949101166959E-02
  4.69400941241630010E-02  4.75305278234166503E-02  4.81283882643442351E-02
  4.87337688638561778E-02  4.93467642139026400E-02  4.99674700962542892E-02
  5.05959834974681749E-02  5.12324026240417729E-02  5.18768269177586130E-02
  5.25293570712254757E-02  5.31900950436065278E-02  5.38591440765543300E-02
  5.45366087103412722E-02  5.52225948001948963E-02  5.59172095328371935E-02
  5.66205614432334497E-02  5.73327604315507292E-02  5.80539177803297488E-02
  5.87841461718736635E-02  5.95235597058541011E-02  6.02722739171402053E-02
  6.10304057938508560E-02  6.17980737956340190E-02  6.25753978721770160E-02
  6.33624994819480675E-02  6.41595016111751737E-02  6.49665287930626667E-02
  6.57837071272493745E-02  6.66111642995128456E-02  6.74490296017194457E-02
  6.82974339520274476E-02  6.91565099153427787E-02  7.00263917240322581E-02
  7.09072152988985543E-02  7.17991182704170311E-02  7.27022400002416969E-02
  7.36167216029803839E-02  7.45427059682437915E-02  7.54803377829731809E-02
  7.64297635540469728E-02  7.73911316311736430E-02  7.83645922300712922E-02
  7.93502974559387730E-02  8.03484013272233039E-02  8.13590597996851628E-02
  8.23824307907670278E-02  8.34186742042684337E-02  8.44679519553307306E-02
  8.55304279957375818E-02  8.66062683395316252E-02  8.76956410889555421E-02
  8.87987164607179358E-02  8.99156668125895425E-02  9.10466666703356187E-02
  9.21918927549846556E-02  9.33515240104425270E-02  9.45257416314523452E-02
  9.57147290919060367E-02  9.69186721735136175E-02  9.81377589948307233E-02
  9.93721800406535821E-02  1.00622128191782248E-01  1.01887798755158007E-01
  1.03169389494381786E-01  1.04467100660613627E-01  1.05781135023863646E-01
  1.07111697904674730E-01  1.08458997206203681E-01  1.09823243446707824E-01
  1.11204649792437452E-01  1.12603432090944769E-01  1.14019808904809949E-01
  1.15454001545791413E-01  1.16906234109407592E-01  1.18376733509950760E-01
  1.19865729515944180E-01  1.21373454786043403E-01  1.22900144905388933E-01
  1.24446038422418442E-01  1.26011376886138671E-01  1.27596404883869474E-01
  1.29201370079460531E-01  1.30826523251988514E-01  1.32472118334943462E-01
  1.34138412455904632E-01  1.35825665976718774E-01  1.37534142534181447E-01
  1.39264109081230270E-01  1.41015835928658295E-01  1.42789596787348871E-01
  1.44585668811045148E-01  1.46404332639655244E-01  1.48245872443101973E-01
  1.50110575965726745E-01  1.51998734571248240E-01  1.53910643288290322E-01
  1.55846600856480111E-01  1.57806909773125836E-01  1.59791876340484529E-01
  1.61801810713620237E-01  1.63837026948868286E-01  1.65897843052906419E-01
  1.67984581032443042E-01  1.70097566944533568E-01  1.72237130947525074E-01
  1.74403607352646317E-01  1.76597334676243584E-01  1.78818655692673772E-01
  1.81067917487865659E-01  1.83345471513550212E-01  1.85651673642178050E-01
  1.87986884222524048E-01  1.90351468135991769E-01  1.92745794853629165E-01
  1.95170238493856452E-01  1.97625177880925346E-01  2.00110996604110025E-01
  2.02628083077642712E-01  2.05176830601406707E-01  2.07757637422387315E-01
  2.10370906796901708E-01  2.13017047053605690E-01  2.15696471657298355E-01
  2.18409599273525740E-01  2.21156853833996997E-01  2.23938664602827325E-01
  2.26755466243608206E-01  2.29607698887327211E-01  2.32495808201138271E-01
  2.35420245457996752E-01  2.38381467607174685E-01  2.41379937345656659E-01
  2.44416123190440177E-01  2.47490499551741128E-01  2.50603546807119937E-01
  2.53755751376544658E-01  2.56947605798391598E-01  2.60179608806408502E-01
  2.63452265407641384E-01  2.66766086961341575E-01  2.70121591258869753E-01
  2.73519302604598280E-01  2.76959751897838169E-01  2.80443476715791506E-01
  2.83971021397547929E-01  2.87542937129141751E-01  2.91159782029672132E-01
  2.94822121238513812E-01  2.98530527003619817E-01  3.02285578770934649E-01
  3.06087863274937810E-01  3.09937974630317692E-01  3.13836514424807311E-01
  3.17784091813181679E-01  3.21781323612438053E-01  3.25828834398178668E-01
  3.29927256602197294E-01  3.34077230611302234E-01  3.38279404867376177E-01
  3.42534435968694873E-01  3.46842988772526006E-01  3.51205736499009769E-01
  3.55623360836355151E-01  3.60096552047353136E-01  3.64626009077230029E-01
  3.69212439662863268E-01  3.73856560443361741E-01  3.78559097072046546E-01
  3.83320784329833963E-01  3.88142366240044501E-01  3.93024596184662456E-01
  3.97968237022048366E-01  4.02974061206141598E-01  4.08042850907156140E-01
  4.13175398133793781E-01  4.18372504857002447E-01  4.23634983135279808E-01
  4.28963655241564046E-01  4.34359353791713920E-01  4.39822921874603978E-01
  4.45355213183864340E-01  4.50957092151266170E-01  4.56629434081795960E-01
  4.62373125290421572E-01  4.68189063240578518E-01  4.74078156684405616E-01
  4.80041325804733354E-01  4.86079502358869708E-01  4.92193629824186962E-01
  4.98384663545539064E-01  5.04653570884542546E-01  5.11001331370721457E-01
  5.17428936854567367E-01  5.23937391662515073E-01  5.30527712753868008E-01
  5.37200929879706690E-01  5.43958085743782016E-01  5.50800236165445933E-01
  5.57728450244623586E-01  5.64743810528858359E-01  5.71847413182469344E-01
  5.79040368157821783E-01  5.86323799368765664E-01  5.93698844866246911E-01
  6.01166657016127148E-01  6.08728402679250324E-01  6.16385263393758653E-01
  6.24138435559717708E-01  6.31989130626053663E-01  6.39938575279840660E-01
  6.47988011637981476E-01  6.56138697441281393E-01  6.64391906250980990E-01
  6.72748927647749406E-01  6.81211067433179829E-01  6.89779647833832610E-01
  6.98456007707825899E-01  7.07241502754043183E-01  7.16137505723961176E-01
  7.25145406636140244E-01  7.34266612993427326E-01  7.43502550002870355E-01
  7.52854660798419006E-01  7.62324406666413434E-01  7.71913267273909187E-01
  7.81622740899887702E-01  7.91454344669354160E-01  8.01409614790401625E-01
  8.11490106794242050E-01  8.21697395778257067E-01  8.32033076652120229E-01
  8.42498764386993226E-01  8.53096094267878691E-01  8.63826722149132586E-01
  8.74692324713189917E-01  8.85694599732560484E-01  8.96835266335097470E-01
  9.08116065272624784E-01  9.19538759192929045E-01  9.31105132915171718E-01
  9.42816993708782136E-01  9.54676171575833954E-01  9.66684519536998188E-01
  9.78843913921076836E-01  9.91156254658177249E-01  1.00362346557659299E+00
  1.01624749470339082E+00  1.02903031456880778E+00  1.04197392251445642E+00
  1.05508034100540860E+00  1.06835161794622224E+00  1.08178982700091630E+00
  1.09539706791699776E+00  1.10917546685354584E+00  1.12312717671342299E+00
  1.13725437747968350E+00  1.15155927655618506E+00  1.16604410911251422E+00
  1.18071113843322939E+00  1.19556265627149827E+00  1.21060098320720266E+00
  1.22582846900951803E+00  1.24124749300408332E+00  1.25686046444477051E+00
  1.27266982289012720E+00  1.28867803858457997E+00  1.30488761284439492E+00
  1.32130107844853129E+00  1.33792100003438530E+00  1.35474997449851409E+00
  1.37179063140242063E+00  1.38904563338341136E+00  1.40651767657065330E+00
  1.42420949100644445E+00  1.44212384107277947E+00  1.46026352592330855E+00
  1.47863137992068983E+00  1.49723027307948242E+00  1.51606311151458506E+00
  1.53513283789531352E+00  1.55444243190521791E+00  1.57399491070764252E+00
  1.59379332941718266E+00  1.61384078157704458E+00  1.63414039964240976E+00
  1.65469535546990665E+00  1.67550886081319628E+00  1.69658416782483745E+00
  1.71792456956443140E+00  1.73953340051316174E+00  1.76141403709483324E+00
  1.78356989820342249E+00  1.80600444573730723E+00  1.82872118514018611E+00
  1.85172366594880211E+00  1.87501548234758686E+00  1.89860027373023388E+00
  1.92248172526838346E+00  1.94666356848742894E+00  1.97114958184956524E+00
  1.99594359134420363E+00  2.02104947108576516E+00  2.04647114391904061E+00
  2.07221258203213532E+00  2.09827780757711757E+00  2.12467089329851744E+00
  2.15139596316966752E+00  2.17845719303711194E+00  2.20585881127307815E+00
  2.23360509943615648E+00  2.26170039294033032E+00  2.29014908173236220E+00
  2.31895561097775937E+00  2.34812448175532795E+00  2.37766025176046281E+00
  2.40756753601732676E+00  2.43785100759992357E+00  2.46851539836230405E+00
  2.49956549967791686E+00  2.53100616318825544E+00  2.56284230156096848E+00
  2.59507888925743924E+00  2.62772096331008509E+00  2.66077362410939289E+00
  2.69424203620084901E+00  2.72813142909194450E+00  2.76244709806925703E+00
  2.79719440502588546E+00  2.83237877929924009E+00  2.86800571851937480E+00
  2.90408078946803627E+00  2.94060962894844513E+00  2.97759794466609362E+00
  3.01505151612057176E+00  3.05297619550860855E+00  3.09137790863852713E+00
  3.13026265585612240E+00  3.16963651298226390E+00  3.20950563226223995E+00
  3.24987624332704117E+00  3.29075465416679291E+00  3.33214725211634466E+00
  3.37406050485334541E+00  3.41650096140881532E+00  3.45947525319042448E+00
  3.50299009501870762E+00  3.54705228617622037E+00  3.59166871146998190E+00
  3.63684634230722326E+00  3.68259223778466582E+00  3.72891354579156031E+00
  3.77581750412651207E+00  3.82331144162844350E+00  3.87140277932172383E+00
  3.92009903157569672E+00  3.96940780727886366E+00  4.01933681102773388E+00
  4.06989384433073109E+00  4.12108680682717576E+00  4.17292369752159598E+00
  4.22541261603364049E+00  4.27856176386360243E+00  4.33237944567396838E+00
  4.38687407058702394E+00  4.44205415349876453E+00  4.49792831640942747E+00
  4.55450528977062774E+00  4.61179391384956716E+00  4.66980314011032149E+00
  4.72854203261249761E+00  4.78801976942757168E+00  4.84824564407291270E+00
  4.90922906696397199E+00  4.97097956688465725E+00  5.03350679247619581E+00
  5.09682051374481748E+00  5.16093062358826415E+00  5.22584713934164125E+00
  5.29158020434261811E+00  5.35814008951631848E+00  5.42553719498023579E+00
  5.49378205166919997E+00  5.56288532298092342E+00  5.63285780644215173E+00
  5.70371043539576394E+00  5.77545428070920686E+00  5.84810055250425265E+00
  5.92166060190868038E+00  5.99614592282987857E+00  6.07156815375076242E+00
  6.14793907954838215E+00  6.22527063333524922E+00  6.30357489832398610E+00
  6.38286410971532092E+00  6.46315065660982491E+00  6.54444708394381713E+00
  6.62676609444944642E+00  6.71012055063959245E+00  6.79452347681763502E+00
  6.87998806111248307E+00  6.96652765753933689E+00  7.05415578808618005E+00
  7.14288614482670248E+00  7.23273259205968078E+00  7.32370916847526576E+00
  7.41583008934863930E+00  7.50910974876108384E+00  7.60356272184917525E+00
  7.69920376708213716E+00  7.79604782856784428E+00  7.89411003838796077E+00
  7.99340571896225338E+00  8.09395038544284340E+00  8.19575974813844432E+00
  8.29884971496908008E+00  8.40323639395183442E+00  8.50893609571764742E+00
  8.61596533605998083E+00  8.72434083851540620E+00  8.83407953697664361E+00
  8.94519857833862275E+00  9.05771532517760036E+00  9.17164735846420065E+00
  9.28701248031044102E+00  9.40382871675128484E+00  9.52211432056137674E+00
  9.64188777410693199E+00  9.76316779223376408E+00  9.88597332519147010E+00
  1.00103235615943884E+01  1.01362379314199842E+01  1.02637361090446841E+01
  1.03928380163181533E+01  1.05235638256760851E+01  1.06559339632921173E+01
  1.07899691122695991E+01  1.09256902158732156E+01  1.10631184808015526E+01
  1.12022753805006232E+01  1.13431826585190834E+01  1.14858623319058424E+01
  1.16303366946501097E+01  1.17766283211650205E+01  1.19247600698148695E+01
  1.20747550864867179E+01  1.22266368082071342E+01  1.23804289668040948E+01
  1.25361555926152963E+01  1.26938410182428747E+01  1.28535098823553504E+01
  1.30151871335376370E+01  1.31788980341891175E+01  1.33446681644711180E+01
  1.35125234263037779E+01  1.36824900474132178E+01  1.38545945854298314E+01
  1.40288639320377868E+01  1.42053253171770670E+01  1.43840063132981406E+01
  1.45649348396701299E+01  1.47481391667434334E+01  1.49336479205668375E+01