<?xml version="1.0" encoding="UTF-8"?>
<UPF version="2.0.1">
  <PP_INFO><![CDATA[
Generated using "atomic" code by A. Dal Corso  v.6.3MaX
Author: MS
Generation date: 11Apr2023
Pseudopotential type: PAW
Element: Np
Functional:  SLA  PW   PSX  PSC
    Suggested minimum cutoff for wavefunctions:  49. Ry
    Suggested minimum cutoff for charge density: 287. Ry
    The Pseudo was generated with a Scalar-Relativistic Calculation
    Local Potential according to Troullier-Martins recipe, cutoff radius:   1.3000
    Pseudopotential contains additional information for GIPAW reconstruction.
    Valence configuration:
    nl pn  l   occ       Rcut    Rcut US       E pseu
    6S  1  0  2.00      1.300      1.600    -3.675818
    7S  2  0  2.00      1.300      1.600    -0.318741
    6P  2  1  6.00      1.400      2.000    -1.764821
    6D  3  2  1.00      1.400      2.200    -0.168025
    5F  4  3  4.00      1.400      1.800    -0.315279
    Generation configuration:
    6S  1  0  2.00      1.300      1.600    -3.675848
    7S  2  0  2.00      1.300      1.600    -0.318751
    6P  2  1  6.00      1.400      2.000    -1.764846
    7P  3  1  0.00      1.400      2.000     3.500000
    6D  3  2  1.00      1.400      2.200    -0.168038
    6D  3  2  0.00      1.400      2.200     2.500000
    5F  4  3  4.00      1.400      1.800    -0.315305
    5F  4  3  0.00      1.400      2.300     0.500000
    Pseudization used: troullier-martins
]]>
    <PP_INPUTFILE><![CDATA[
&input
 title = 'Neptunium'
 atom = 'Np',
 dft = 'PBESOL',
 config = '[Rn] 5f4.0 6d1.0 7s2.0 7p0',
 rel = 1,
 iswitch = 3
/
&inputp
   lpaw=.true.
   pseudotype=3,
   file_pseudopw='Np.paw.z_15.ld1.uni-marburg.v0.upf',
   author='MS',
   lloc = -2,
   rcloc = 1.3
   nlcc = .true.
   new_core_ps=.true.
   rcore = 1.15,
   which_augfun='PSQ',
   rmatch_augfun = 1.40,
   rmatch_augfun_nc = .true.,
   tm=.true.,
   lgipaw_reconstruction=.true.,
   use_paw_as_gipaw=.true.,
 /
8
6S  1  0  2.00  0.00  1.30  1.60  0.0
7S  2  0  2.00  0.00  1.30  1.60  0.0
6P  2  1  6.00  0.00  1.40  2.00  0.0
7P  3  1  0.00  3.50  1.40  2.00  0.0
6D  3  2  1.00  0.00  1.40  2.20  0.0
6D  3  2  0.00  2.50  1.40  2.20  0.0
5F  4  3  4.00  0.00  1.40  1.80  0.0
5F  4  3  0.00  0.50  1.40  2.30  0.0
]]></PP_INPUTFILE>
  </PP_INFO>
  <!--
 END OF HUMAN READABLE SECTION 
-->
  <PP_HEADER generated="Generated using &quot;atomic&quot; code by A. Dal Corso  v.6.3MaX" author="MS" date="11Apr2023" comment="" element="Np" pseudo_type="PAW" relativistic="scalar" is_ultrasoft="true" is_paw="true" is_coulomb="false" has_so="false" has_wfc="true" has_gipaw="true" paw_as_gipaw="true" core_correction="true" functional=" SLA  PW   PSX  PSC" z_valence="1.500000000000e1" total_psenergy="-1.048576917421e3" wfc_cutoff="4.902278636995e1" rho_cutoff="2.870740692284e2" l_max="3" l_max_rho="6" l_local="-2" mesh_size="1293" number_of_wfc="5" number_of_proj="8"/>
  <PP_MESH dx="1.250000000000e-2" mesh="1293" xmin="-7.000000000000e0" rmax="1.000000000000e2" zmesh="9.300000000000e1">
    <PP_R>
      9.805182425317376e-6 9.928516437301315e-6 1.005340180017830e-5 1.017985802754036e-5
      1.030790487843032e-5 1.043756236042913e-5 1.056885073278214e-5 1.070179050956464e-5
      1.083640246288721e-5 1.097270762614145e-5 1.111072729728642e-5 1.125048304217654e-5
      1.139199669793129e-5 1.153529037634728e-5 1.168038646735331e-5 1.182730764250880e-5
      1.197607685854627e-5 1.212671736095841e-5 1.227925268763019e-5 1.243370667251675e-5
      1.259010344936747e-5 1.274846745549691e-5 1.290882343560324e-5 1.307119644563457e-5
      1.323561185670410e-5 1.340209535905430e-5 1.357067296607112e-5 1.374137101834865e-5
      1.391421618780482e-5 1.408923548184903e-5 1.426645624760206e-5 1.444590617616910e-5
      1.462761330696660e-5 1.481160603210341e-5 1.499791310081719e-5 1.518656362396647e-5
      1.537758707857930e-5 1.557101331245909e-5 1.576687254884842e-5 1.596519539115147e-5
      1.616601282771583e-5 1.636935623667453e-5 1.657525739084893e-5 1.678374846271325e-5
      1.699486202942169e-5 1.720863107789854e-5 1.742508900999255e-5 1.764426964769598e-5
      1.786620723842940e-5 1.809093646039291e-5 1.831849242798467e-5 1.854891069728755e-5
      1.878222727162494e-5 1.901847860718624e-5 1.925770161872333e-5 1.949993368531844e-5
      1.974521265622481e-5 1.999357685678066e-5 2.024506509439760e-5 2.049971666462448e-5
      2.075757135728720e-5 2.101866946270610e-5 2.128305177799136e-5 2.155075961341763e-5
      2.182183479887887e-5 2.209631969042429e-5 2.237425717687666e-5 2.265569068653370e-5
      2.294066419395385e-5 2.322922222682747e-5 2.352140987293425e-5 2.381727278718836e-5
      2.411685719877208e-5 2.442020991835922e-5 2.472737834542942e-5 2.503841047567434e-5
      2.535335490849713e-5 2.567226085460617e-5 2.599517814370434e-5 2.632215723227509e-5
      2.665324921146622e-5 2.698850581507310e-5 2.732797942762213e-5 2.767172309255592e-5
      2.801979052052149e-5 2.837223609776260e-5 2.872911489461775e-5 2.909048267412502e-5
      2.945639590073514e-5 2.982691174913429e-5 3.020208811317756e-5 3.058198361493513e-5
      3.096665761385207e-5 3.135617021602330e-5 3.175058228358545e-5 3.214995544422645e-5
      3.255435210081522e-5 3.296383544115208e-5 3.337846944784202e-5 3.379831890829226e-5
      3.422344942483513e-5 3.465392742497877e-5 3.508982017178654e-5 3.553119577438690e-5
      3.597812319861582e-5 3.643067227779260e-5 3.688891372363154e-5 3.735291913729090e-5
      3.782276102056052e-5 3.829851278719065e-5 3.878024877436270e-5 3.926804425430477e-5
      3.976197544605303e-5 4.026211952736108e-5 4.076855464675923e-5 4.128135993576519e-5
      4.180061552124872e-5 4.232640253795143e-5 4.285880314116442e-5 4.339790051956514e-5
      4.394377890821577e-5 4.449652360172513e-5 4.505622096757612e-5 4.562295845962086e-5
      4.619682463174560e-5 4.677790915170720e-5 4.736630281514414e-5 4.796209755976346e-5
      4.856538647970608e-5 4.917626384009326e-5 4.979482509175534e-5 5.042116688614636e-5
      5.105538709044600e-5 5.169758480285147e-5 5.234786036806196e-5 5.300631539295755e-5
      5.367305276247546e-5 5.434817665568616e-5 5.503179256207153e-5 5.572400729800780e-5
      5.642492902345575e-5 5.713466725886103e-5 5.785333290226689e-5 5.858103824664220e-5
      5.931789699742764e-5 6.006402429030214e-5 6.081953670917322e-5 6.158455230439341e-5
      6.235919061120581e-5 6.314357266842206e-5 6.393782103733434e-5 6.474205982086623e-5
      6.555641468296386e-5 6.638101286823119e-5 6.721598322181249e-5 6.806145620952416e-5
      6.891756393824067e-5 6.978444017653642e-5 7.066222037558724e-5 7.155104169033520e-5
      7.245104300091899e-5 7.336236493437448e-5 7.428514988660789e-5 7.521954204464527e-5
      7.616568740916263e-5 7.712373381729785e-5 7.809383096575151e-5 7.907613043417673e-5
      8.007078570886385e-5 8.107795220672340e-5 8.209778729956946e-5 8.313045033871045e-5
      8.417610267984703e-5 8.523490770828490e-5 8.630703086446410e-5 8.739263966980870e-5
      8.849190375290355e-5 8.960499487599794e-5 9.073208696184443e-5 9.187335612087468e-5
      9.302898067871650e-5 9.419914120405839e-5 9.538402053686299e-5 9.658380381693672e-5
      9.779867851285834e-5 9.902883445127033e-5 1.002744638465412e-4 1.015357613307980e-4
      1.028129239843387e-4 1.041061513664268e-4 1.054156455464712e-4 1.067416111356023e-4
      1.080842553186407e-4 1.094437878864717e-4 1.108204212688253e-4 1.122143705674678e-4
      1.136258535898135e-4 1.150550908829562e-4 1.165023057681307e-4 1.179677243756074e-4
      1.194515756800248e-4 1.209540915361684e-4 1.224755067151976e-4 1.240160589413293e-4
      1.255759889289834e-4 1.271555404203937e-4 1.287549602236948e-4 1.303744982514849e-4
      1.320144075598757e-4 1.336749443880333e-4 1.353563681982150e-4 1.370589417163126e-4
      1.387829309729019e-4 1.405286053448116e-4 1.422962375972144e-4 1.440861039262455e-4
      1.458984840021606e-4 1.477336610130338e-4 1.495919217090067e-4 1.514735564470939e-4
      1.533788592365511e-4 1.553081277848159e-4 1.572616635440239e-4 1.592397717581118e-4
      1.612427615105131e-4 1.632709457724510e-4 1.653246414518434e-4 1.674041694428182e-4
      1.695098546758547e-4 1.716420261685551e-4 1.738010170770524e-4 1.759871647480691e-4
      1.782008107716264e-4 1.804423010344189e-4 1.827119857738611e-4 1.850102196328106e-4
      1.873373617149840e-4 1.896937756410663e-4 1.920798296055273e-4 1.944958964341539e-4
      1.969423536423029e-4 1.994195834938912e-4 2.019279730611227e-4 2.044679142849705e-4
      2.070398040364186e-4 2.096440441784730e-4 2.122810416289547e-4 2.149512084240799e-4
      2.176549617828429e-4 2.203927241722071e-4 2.231649233731155e-4 2.259719925473336e-4
      2.288143703051309e-4 2.316925007738147e-4 2.346068336671267e-4 2.375578243555101e-4
      2.405459339372645e-4 2.435716293105911e-4 2.466353832465476e-4 2.497376744629202e-4
      2.528789876990227e-4 2.560598137914396e-4 2.592806497507190e-4 2.625419988390326e-4
      2.658443706488107e-4 2.691882811823672e-4 2.725742529325264e-4 2.760028149642627e-4
      2.794745029973693e-4 2.829898594901647e-4 2.865494337242525e-4 2.901537818903493e-4
      2.938034671751889e-4 2.974990598495224e-4 3.012411373572239e-4 3.050302844055173e-4
      3.088670930563380e-4 3.127521628188439e-4 3.166861007430892e-4 3.206695215148786e-4
      3.247030475518119e-4 3.287873091005387e-4 3.329229443352355e-4 3.371105994573214e-4
      3.413509287964296e-4 3.456445949126459e-4 3.499922687000370e-4 3.543946294914771e-4
      3.588523651647966e-4 3.633661722502641e-4 3.679367560394197e-4 3.725648306952799e-4
      3.772511193639251e-4 3.819963542874943e-4 3.868012769185986e-4 3.916666380361745e-4
      3.965931978627959e-4 4.015817261834584e-4 4.066330024658611e-4 4.117478159822006e-4
      4.169269659324947e-4 4.221712615694605e-4 4.274815223249604e-4 4.328585779380414e-4
      4.383032685845831e-4 4.438164450085758e-4 4.493989686550528e-4 4.550517118046915e-4
      4.607755577101096e-4 4.665714007338750e-4 4.724401464882519e-4 4.783827119767045e-4
      4.844000257371809e-4 4.904930279871978e-4 4.966626707707540e-4 5.029099181070858e-4
      5.092357461413004e-4 5.156411432968976e-4 5.221271104302147e-4 5.286946609868127e-4
      5.353448211598274e-4 5.420786300503158e-4 5.488971398296174e-4 5.558014159037571e-4
      5.627925370799182e-4 5.698715957350087e-4 5.770396979863456e-4 5.842979638644891e-4
      5.916475274882500e-4 5.990895372418967e-4 6.066251559545952e-4 6.142555610820999e-4
      6.219819448907364e-4 6.298055146436941e-4 6.377274927896636e-4 6.457491171538488e-4
      6.538716411313761e-4 6.620963338831423e-4 6.704244805341232e-4 6.788573823741761e-4
      6.873963570613717e-4 6.960427388278769e-4 7.047978786884340e-4 7.136631446514585e-4
      7.226399219327931e-4 7.317296131721527e-4 7.409336386522858e-4 7.502534365208996e-4
      7.596904630153722e-4 7.692461926902928e-4 7.789221186478651e-4 7.887197527712056e-4
      7.986406259605796e-4 8.086862883726067e-4 8.188583096624766e-4 8.291582792292120e-4
      8.395878064640126e-4 8.501485210017277e-4 8.608420729754901e-4 8.716701332745512e-4
      8.826343938053633e-4 8.937365677559416e-4 9.049783898635527e-4 9.163616166857729e-4
      9.278880268749514e-4 9.395594214561333e-4 9.513776241084656e-4 9.633444814501582e-4
      9.754618633270166e-4 9.877316631046117e-4 1.000155797964124e-3 1.012736209201900e-3
      1.025474862532792e-3 1.038373748397300e-3 1.051434882272581e-3 1.064660304987380e-3
      1.078052083040900e-3 1.091612308925710e-3 1.105343101454693e-3 1.119246606092114e-3
      1.133324995288864e-3 1.147580468821895e-3 1.162015254137949e-3 1.176631606701602e-3
      1.191431810347677e-3 1.206418177638105e-3 1.221593050223266e-3 1.236958799207875e-3
      1.252517825521473e-3 1.268272560293576e-3 1.284225465233544e-3 1.300379033015233e-3
      1.316735787666472e-3 1.333298284963455e-3 1.350069112830079e-3 1.367050891742318e-3
      1.384246275137680e-3 1.401657949829803e-3 1.419288636428282e-3 1.437141089763769e-3
      1.455218099318416e-3 1.473522489661747e-3 1.492057120891992e-3 1.510824889082991e-3
      1.529828726736706e-3 1.549071603241433e-3 1.568556525335778e-3 1.588286537578461e-3
      1.608264722824033e-3 1.628494202704588e-3 1.648978138117510e-3 1.669719729719387e-3
      1.690722218426104e-3 1.711988885919251e-3 1.733523055158892e-3 1.755328090902779e-3
      1.777407400232113e-3 1.799764433083899e-3 1.822402682790002e-3 1.845325686622998e-3
      1.868537026348872e-3 1.892040328786683e-3 1.915839266375253e-3 1.939937557746998e-3
      1.964338968308976e-3 1.989047310831229e-3 2.014066446042549e-3 2.039400283233713e-3
      2.065052780868325e-3 2.091027947201330e-3 2.117329840905313e-3 2.143962571704679e-3
      2.170930301017801e-3 2.198237242607249e-3 2.225887663238202e-3 2.253885883345137e-3
      2.282236277706915e-3 2.310943276130330e-3 2.340011364142290e-3 2.369445083690688e-3
      2.399249033854084e-3 2.429427871560332e-3 2.459986312314220e-3 2.490929130934289e-3
      2.522261162298901e-3 2.553987302101700e-3 2.586112507616583e-3 2.618641798472266e-3
      2.651580257436630e-3 2.684933031210901e-3 2.718705331233833e-3 2.752902434496023e-3
      2.787529684364427e-3 2.822592491417284e-3 2.858096334289535e-3 2.894046760528859e-3
      2.930449387462501e-3 2.967309903074980e-3 3.004634066896855e-3 3.042427710904656e-3
      3.080696740432151e-3 3.119447135093068e-3 3.158684949715408e-3 3.198416315287535e-3
      3.238647439916154e-3 3.279384609796336e-3 3.320634190193762e-3 3.362402626439289e-3
      3.404696444936058e-3 3.447522254179257e-3 3.490886745788707e-3 3.534796695554454e-3
      3.579258964495480e-3 3.624280499931769e-3 3.669868336569827e-3 3.716029597601876e-3
      3.762771495818876e-3 3.810101334737515e-3 3.858026509741417e-3 3.906554509236683e-3
      3.955692915821960e-3 4.005449407473258e-3 4.055831758743625e-3 4.106847841977948e-3
      4.158505628543027e-3 4.210813190073107e-3 4.263778699731108e-3 4.317410433485664e-3
      4.371716771404293e-3 4.426706198962783e-3 4.482387308371058e-3 4.538768799915759e-3
      4.595859483319643e-3 4.653668279118145e-3 4.712204220053222e-3 4.771476452484730e-3
      4.831494237819588e-3 4.892266953958856e-3 4.953804096763076e-3 5.016115281536006e-3
      5.079210244527039e-3 5.143098844452519e-3 5.207791064036158e-3 5.273297011568885e-3
      5.339626922488278e-3 5.406791160977859e-3 5.474800221586551e-3 5.543664730868434e-3
      5.613395449043185e-3 5.684003271677395e-3 5.755499231386992e-3 5.827894499561152e-3
      5.901200388107812e-3 5.975428351221201e-3 6.050589987171572e-3 6.126697040117452e-3
      6.203761401940718e-3 6.281795114104688e-3 6.360810369535650e-3 6.440819514528019e-3
      6.521835050673477e-3 6.603869636814386e-3 6.686936091021724e-3 6.771047392597961e-3
      6.856216684105094e-3 6.942457273418194e-3 7.029782635804811e-3 7.118206416030476e-3
      7.207742430490748e-3 7.298404669370052e-3 7.390207298827658e-3 7.483164663211205e-3
      7.577291287297996e-3 7.672601878564547e-3 7.769111329484652e-3 7.866834719856364e-3
      7.965787319158258e-3 8.065984588935290e-3 8.167442185214718e-3 8.270175960952377e-3
      8.374201968509730e-3 8.479536462162116e-3 8.586195900638465e-3 8.694196949693040e-3
      8.803556484709487e-3 8.914291593337641e-3 9.026419578163523e-3 9.139957959412886e-3
      9.254924477688798e-3 9.371337096743639e-3 9.489214006285973e-3 9.608573624822752e-3
      9.729434602537202e-3 9.851815824202991e-3 9.975736412134985e-3 1.010121572917716e-2
      1.022827338172811e-2 1.035692922280454e-2 1.048720335514337e-2 1.061911613434282e-2
      1.075268817204301e-2 1.088794033914661e-2 1.102489376907989e-2 1.116356986109490e-2
      1.130399028361317e-2 1.144617697761139e-2 1.159015216004980e-2 1.173593832734357e-2
      1.188355825887794e-2 1.203303502056754e-2 1.218439196846050e-2 1.233765275238788e-2
      1.249284131965896e-2 1.264998191880313e-2 1.280909910335870e-2 1.297021773570947e-2
      1.313336299096957e-2 1.329856036091704e-2 1.346583565797704e-2 1.363521501925506e-2
      1.380672491062087e-2 1.398039213084399e-2 1.415624381578088e-2 1.433430744261509e-2
      1.451461083415058e-2 1.469718216315910e-2 1.488204995678228e-2 1.506924310098896e-2
      1.525879084508880e-2 1.545072280630242e-2 1.564506897438926e-2 1.584185971633350e-2
      1.604112578108893e-2 1.624289830438359e-2 1.644720881358473e-2 1.665408923262508e-2
      1.686357188699106e-2 1.707568950877359e-2 1.729047524178262e-2 1.750796264672593e-2
      1.772818570645299e-2 1.795117883126498e-2 1.817697686429131e-2 1.840561508693403e-2
      1.863712922438061e-2 1.887155545118601e-2 1.910893039692515e-2 1.934929115191623e-2
      1.959267527301624e-2 1.983912078948926e-2 2.008866620894863e-2 2.034135052337387e-2
      2.059721321520319e-2 2.085629426350274e-2 2.111863415021343e-2 2.138427386647626e-2
      2.165325491903739e-2 2.192561933673351e-2 2.220140967705901e-2 2.248066903281567e-2
      2.276344103884597e-2 2.304976987885118e-2 2.333970029229508e-2 2.363327758139466e-2
      2.393054761819859e-2 2.423155685175493e-2 2.453635231536886e-2 2.484498163395166e-2
      2.515749303146228e-2 2.547393533844238e-2 2.579435799964622e-2 2.611881108176655e-2
      2.644734528125753e-2 2.678001193225626e-2 2.711686301460376e-2 2.745795116196695e-2
      2.780332967006287e-2 2.815305250498604e-2 2.850717431164095e-2 2.886575042228035e-2
      2.922883686515102e-2 2.959649037324847e-2 2.996876839318120e-2 3.034572909414730e-2
      3.072743137702329e-2 3.111393488356732e-2 3.150530000573876e-2 3.190158789513408e-2
      3.230286047254228e-2 3.270918043762006e-2 3.312061127868851e-2 3.353721728265371e-2
      3.395906354505128e-2 3.438621598021801e-2 3.481874133159101e-2 3.525670718213628e-2
      3.570018196490915e-2 3.614923497374656e-2 3.660393637409482e-2 3.706435721397288e-2
      3.753056943507356e-2 3.800264588400509e-2 3.848066032367291e-2 3.896468744480581e-2
      3.945480287762631e-2 3.995108320366778e-2 4.045360596774101e-2 4.096244969005014e-2
      4.147769387846207e-2 4.199941904092962e-2 4.252770669807072e-2 4.306263939590677e-2
      4.360430071875996e-2 4.415277530231410e-2 4.470814884683882e-2 4.527050813058021e-2
      4.583994102332067e-2 4.641653650010801e-2 4.700038465515868e-2 4.759157671593481e-2
      4.819020505739855e-2 4.879636321644631e-2 4.941014590652355e-2 5.003164903242440e-2
      5.066096970527683e-2 5.129820625771616e-2 5.194345825925036e-2 5.259682653181727e-2
      5.325841316553886e-2 5.392832153467272e-2 5.460665631376431e-2 5.529352349400314e-2
      5.598903039978333e-2 5.669328570547409e-2 5.740639945239979e-2 5.812848306603405e-2
      5.885964937341081e-2 5.960001262075294e-2 6.034968849132425e-2 6.110879412350481e-2
      6.187744812909388e-2 6.265577061184386e-2 6.344388318622601e-2 6.424190899643357e-2
      6.504997273562312e-2 6.586820066539769e-2 6.669672063553625e-2 6.753566210396952e-2
      6.838515615700892e-2 6.924533552982864e-2 7.011633462720551e-2 7.099828954452080e-2
      7.189133808902443e-2 7.279561980136853e-2 7.371127597741056e-2 7.463844969029071e-2
      7.557728581278818e-2 7.652793103995696e-2 7.749053391204801e-2 7.846524483771868e-2
      7.945221611753388e-2 8.045160196776436e-2 8.146355854448224e-2 8.248824396796159e-2
      8.352581834738471e-2 8.457644380585904e-2 8.564028450575034e-2 8.671750667433200e-2
      8.780827862975965e-2 8.891277080737069e-2 9.003115578631469e-2 9.116360831652024e-2
      9.231030534599888e-2 9.347142604849463e-2 9.464715185147970e-2 9.583766646450254e-2
      9.704315590789388e-2 9.826380854183148e-2 9.949981509577301e-2 1.007513686982574e-1
      1.020186649070809e-1 1.033019017398550e-1 1.046012797049450e-1 1.059170018328019e-1
      1.072492737076852e-1 1.085983034997855e-1 1.099643019977528e-1 1.113474826416311e-1
      1.127480615562104e-1 1.141662575847958e-1 1.156022923234017e-1 1.170563901553779e-1
      1.185287782864689e-1 1.200196867803157e-1 1.215293485944042e-1 1.230579996164637e-1
      1.246058787013269e-1 1.261732277082496e-1 1.277602915387032e-1 1.293673181746402e-1
      1.309945587172416e-1 1.326422674261534e-1 1.343107017592130e-1 1.360001224126798e-1
      1.377107933619682e-1 1.394429819028939e-1 1.411969586934412e-1 1.429729977960515e-1
      1.447713767204485e-1 1.465923764669975e-1 1.484362815706139e-1 1.503033801452220e-1
      1.521939639287721e-1 1.541083283288274e-1 1.560467724687196e-1 1.580095992342897e-1
      1.599971153212134e-1 1.620096312829225e-1 1.640474615791310e-1 1.661109246249680e-1
      1.682003428407330e-1 1.703160427022735e-1 1.724583547919965e-1 1.746276138505254e-1
      1.768241588290007e-1 1.790483329420446e-1 1.813004837213876e-1 1.835809630701706e-1
      1.858901273179319e-1 1.882283372762827e-1 1.905959582952865e-1 1.929933603205447e-1
      1.954209179510007e-1 1.978790104974739e-1 2.003680220419249e-1 2.028883414974719e-1
      2.054403626691577e-1 2.080244843154819e-1 2.106411102107099e-1 2.132906492079606e-1
      2.159735153030932e-1 2.186901276993938e-1 2.214409108730757e-1 2.242262946396068e-1
      2.270467142208669e-1 2.299026103131542e-1 2.327944291560438e-1 2.357226226021126e-1
      2.386876481875448e-1 2.416899692036196e-1 2.447300547691046e-1 2.478083799035548e-1
      2.509254256015346e-1 2.540816789077769e-1 2.572776329932812e-1 2.605137872323761e-1
      2.637906472807460e-1 2.671087251544392e-1 2.704685393098752e-1 2.738706147248505e-1
      2.773154829805706e-1 2.808036823447096e-1 2.843357578555140e-1 2.879122614069694e-1
      2.915337518350313e-1 2.952007950049473e-1 2.989139638996741e-1 3.026738387094049e-1
      3.064810069222292e-1 3.103360634159251e-1 3.142396105509134e-1 3.181922582643761e-1
      3.221946241655594e-1 3.262473336322791e-1 3.303510199086337e-1 3.345063242039533e-1
      3.387138957929889e-1 3.429743921173602e-1 3.472884788882873e-1 3.516568301906040e-1
      3.560801285880894e-1 3.605590652301179e-1 3.650943399596511e-1 3.696866614225939e-1
      3.743367471785167e-1 3.790453238127800e-1 3.838131270500635e-1 3.886409018693219e-1
      3.935294026201940e-1 3.984793931408666e-1 4.034916468774301e-1 4.085669470047291e-1
      4.137060865487326e-1 4.189098685104518e-1 4.241791059914038e-1 4.295146223206659e-1
      4.349172511835208e-1 4.403878367517184e-1 4.459272338153851e-1 4.515363079165807e-1
      4.572159354845461e-1 4.629670039726447e-1 4.687904119970270e-1 4.746870694770461e-1
      4.806578977774286e-1 4.867038298522448e-1 4.928258103906829e-1 4.990247959646556e-1
      5.053017551782726e-1 5.116576688191796e-1 5.180935300118152e-1 5.246103443725856e-1
      5.312091301669913e-1 5.378909184687400e-1 5.446567533208459e-1 5.515076918987710e-1
      5.584448046756075e-1 5.654691755893381e-1 5.725819022122117e-1 5.797840959222319e-1
      5.870768820768197e-1 5.944614001886503e-1 6.019388041037006e-1 6.095102621815470e-1
      6.171769574779166e-1 6.249400879295482e-1 6.328008665413706e-1 6.407605215760322e-1
      6.488202967458285e-1 6.569814514070255e-1 6.652452607566439e-1 6.736130160317088e-1
      6.820860247110037e-1 6.906656107193758e-1 6.993531146345915e-1 7.081498938968140e-1
      7.170573230207013e-1 7.260767938101736e-1 7.352097155758949e-1 7.444575153554693e-1
      7.538216381364285e-1 7.633035470820101e-1 7.729047237597749e-1 7.826266683731156e-1
      7.924708999956542e-1 8.024389568086118e-1 8.125323963411471e-1 8.227527957137193e-1
      8.331017518845265e-1 8.435808818990232e-1 8.541918231425949e-1 8.649362335964012e-1
      8.758157920964315e-1 8.868321985958399e-1 8.979871744305512e-1 9.092824625882365e-1
      9.207198279806523e-1 9.323010577194076e-1 9.440279613952141e-1 9.559023713606273e-1
      9.679261430163637e-1 9.801011551012092e-1 9.924293099855687e-1 1.004912533968728e0
      1.017552777579830e0 1.030352015882654e0 1.043312248784231e0 1.056435501347313e0
      1.069723824106817e0 1.083179293390206e0 1.096804011641932e0 1.110600107751945e0
      1.124569737388325e0 1.138715083334129e0 1.153038355828436e0 1.167541792911716e0
      1.182227660775523e0 1.197098254116584e0 1.212155896495369e0 1.227402940699129e0
      1.242841769109545e0 1.258474794074967e0 1.274304458287348e0 1.290333235163931e0
      1.306563629233709e0 1.322998176528780e0 1.339639444980596e0 1.356490034821206e0
      1.373552578989560e0 1.390829743542892e0 1.408324228073318e0 1.426038766129641e0
      1.443976125644468e0 1.462139109366722e0 1.480530555299556e0 1.499153337143819e0
      1.518010364747065e0 1.537104584558215e0 1.556438980087969e0 1.576016572374959e0
      1.595840420457813e0 1.615913621853129e0 1.636239313039458e0 1.656820669947408e0
      1.677660908455861e0 1.698763284894489e0 1.720131096552545e0 1.741767682194068e0
      1.763676422579591e0 1.785860740994367e0 1.808324103783285e0 1.831070020892485e0
      1.854102046417789e0 1.877423779160048e0 1.901038863187446e0 1.924950988404911e0
      1.949163891130660e0 1.973681354680000e0 1.998507209956498e0 2.023645336050543e0
      2.049099660845484e0 2.074874161631361e0 2.100972865726354e0 2.127399851106083e0
      2.154159247040772e0 2.181255234740483e0 2.208692048008423e0 2.236473973902480e0
      2.264605353405105e0 2.293090582101570e0 2.321934110866819e0 2.351140446560905e0
      2.380714152733195e0 2.410659850335455e0 2.440982218443851e0 2.471685994990095e0
      2.502775977501745e0 2.534257023851813e0 2.566134053017848e0 2.598412045850503e0
      2.631096045851832e0 2.664191159963337e0 2.697702559363920e0 2.731635480277927e0
      2.765995224793279e0 2.800787161689966e0 2.836016727278917e0 2.871689426251421e0
      2.907810832539279e0 2.944386590185705e0 2.981422414227247e0 3.018924091586769e0
      3.056897481977644e0 3.095348518819391e0 3.134283210164733e0 3.173707639638412e0
      3.213627967387748e0 3.254050431045159e0 3.294981346702845e0 3.336427109899639e0
      3.378394196620368e0 3.420889164307721e0 3.463918652886845e0 3.507489385802885e0
      3.551608171071494e0 3.596281902342635e0 3.641517559977716e0 3.687322212140262e0
      3.733703015900377e0 3.780667218352998e0 3.828222157750313e0 3.876375264648363e0
      3.925134063068052e0 3.974506171670852e0 4.024499304949163e0 4.075121274431780e0
      4.126379989904432e0 4.178283460645686e0 4.230839796678456e0 4.284057210037161e0
      4.337944016050916e0 4.392508634642802e0 4.447759591645471e0 4.503705520133379e0
      4.560355161771662e0 4.617717368182086e0 4.675801102326115e0 4.734615439905364e0
      4.794169570779759e0 4.854472800403393e0 4.915534551278591e0 4.977364364428167e0
      5.039971900886204e0 5.103366943207666e0 5.167559396996875e0 5.232559292455346e0
      5.298376785948998e0 5.365022161595076e0 5.432505832869134e0 5.500838344232088e0
      5.570030372777871e0 5.640092729901725e0 5.711036362989474e0 5.782872357128144e0
      5.855611936837951e0 5.929266467826223e0 6.003847458763290e0 6.079366563080701e0
      6.155835580792171e0 6.233266460337274e0 6.311671300448483e0 6.391062352041594e0
      6.471452020129917e0 6.552852865762667e0 6.635277607987566e0 6.718739125838289e0
      6.803250460346818e0 6.888824816581084e0 6.975475565708376e0 7.063216247084513e0
      7.152060570369482e0 7.242022417669564e0 7.333115845706403e0 7.425355088013488e0
      7.518754557160062e0 7.613328847003219e0 7.709092734968171e0 7.806061184357219e0
      7.904249346687892e0 8.003672564060290e0 8.104346371554422e0 8.206286499657544e0
      8.309508876722042e0 8.414029631454373e0 8.519865095435076e0 8.627031805670741e0
      8.735546507177892e0 8.845426155599380e0 8.956687919853858e0 9.069349184818318e0
      9.183427554044640e0 9.298940852510126e0 9.415907129402644e0 9.534344660940960e0
      9.654271953230305e0 9.775707745154111e0 9.898671011301946e0 1.002318096493428e1
      1.014925706098473e1 1.027691899909976e1 1.040618672671695e1 1.053708044218177e1
      1.066962059790351e1 1.080382790355120e1 1.093972332928937e1 1.107732810905477e1
      1.121666374387424e1 1.135775200522414e1 1.150061493843241e1 1.164527486612297e1
      1.179175439170385e1 1.194007640289898e1 1.209026407532431e1 1.224234087610926e1
      1.239633056756332e1 1.255225721088909e1 1.271014516994185e1 1.287001911503638e1
      1.303190402680192e1 1.319582520008524e1 1.336180824790318e1 1.352987910544470e1
      1.370006403412316e1 1.387238962567998e1 1.404688280633938e1 1.422357084101589e1
      1.440248133757440e1 1.458364225114396e1 1.476708188848594e1 1.495282891241683e1
      1.514091234628705e1 1.533136157851583e1 1.552420636718312e1 1.571947684467956e1
      1.591720352241448e1 1.611741729558357e1 1.632014944799627e1 1.652543165696379e1
      1.673329599824899e1 1.694377495107805e1 1.715690140321558e1 1.737270865610339e1
      1.759123043006373e1 1.781250086956844e1 1.803655454857380e1 1.826342647592304e1
      1.849315210081639e1 1.872576731835008e1 1.896130847512516e1 1.919981237492653e1
      1.944131628447380e1 1.968585793924422e1 1.993347554936880e1 2.018420780560298e1
      2.043809388537184e1 2.069517345889190e1 2.095548669536962e1 2.121907426927772e1
      2.148597736671098e1 2.175623769182130e1 2.202989747333439e1 2.230699947114789e1
      2.258758698301266e1 2.287170385129838e1 2.315939446984366e1 2.345070379089301e1
      2.374567733212055e1 2.404436118374215e1 2.434680201571739e1 2.465304708504149e1
      2.496314424312965e1 2.527714194329374e1 2.559508924831318e1 2.591703583810133e1
      2.624303201746775e1 2.657312872397877e1 2.690737753591640e1 2.724583068033747e1
      2.758854104123445e1 2.793556216779840e1 2.828694828278641e1 2.864275429099390e1
      2.900303578783344e1 2.936784906802202e1 2.973725113437678e1 3.011129970672219e1
      3.049005323090874e1 3.087357088794507e1 3.126191260324546e1 3.165513905599290e1
      3.205331168862073e1 3.245649271641294e1 3.286474513722526e1 3.327813274132919e1
      3.369672012137877e1 3.412057268250383e1 3.454975665252944e1 3.498433909232396e1