<UPF version="2.0.1">
   <PP_INFO>
         UPF file from ATOMPAW code with following input
           Tm  69
           GGA-PBESOL  loggrid 2001 scalarrelativistic logderivrange -8 8 500
           6 5 5 4 0
           5 2 1
           4 3 12
           0 0 0
           c
           c
           c
           c
           v
           v
           c
           c
           c
           v
           c
           c
           v
           v
           3
           2.393 1.994 2.393 2.393
           n
           y
           2.0
           n
           y
           2.0
           n
           y
           2.0
           n
           VANDERBILT BESSELSHAPE
           4 0.0
           2.353
           2.353
           2.353
           2.353
           2.353
           2.353
           2.353
           2.353
           PWSCFOUT
           UPFDX  0.0125d0  UPFXMIN  -7.d0  UPFZMESH  69.0
           END
  </PP_INFO>
  <!--                               -->
  <!-- END OF HUMAN READABLE SECTION -->
  <PP_HEADER generated="Generated using ATOMPAW code"
             author="   "
             date=" 11/23/2022, 16:03:00.939"
             element="Tm"
             pseudo_type="PAW"
             relativistic="scalar"
             is_ultrasoft="T"
             is_paw="T"
             is_coulomb="F"
             has_so="F"
             has_wfc="T"
             has_gipaw="T"
             paw_as_gipaw="T"
             core_correction="T"
             functional="SLA PW PSX PSC"
             z_valence="23.000"
             l_max="3"
             l_max_rho="6"
             mesh_size="  1116"
             number_of_wfc="     8"
             number_of_proj=" 8"
                                    /> 
<PP_MESH dx=" 1.2500000000000E-02" mesh="  1116" xmin="-7.0000000000000E+00" zmesh=" 6.9000000000000E+01">
 <PP_R type="real" size="  1116" columns="3">
  1.32156806602103811E-05  1.33819134589713368E-05  1.35502372089359728E-05
  1.37206782110326654E-05  1.38932630970147798E-05  1.40680188336218686E-05
  1.42449727267933136E-05  1.44241524259349461E-05  1.46055859282392819E-05
  1.47893015830602117E-05  1.49753280963425662E-05  1.51636945351075151E-05
  1.53544303319943488E-05  1.55475652898593748E-05  1.57431295864327217E-05
  1.59411537790335968E-05  1.61416688093449760E-05  1.63447060082482943E-05
  1.65502971007189478E-05  1.67584742107834453E-05  1.69692698665387596E-05
  1.71827170052349691E-05  1.73988489784217519E-05  1.76176995571596342E-05
  1.78393029372968262E-05  1.80636937448123119E-05  1.82909070412262968E-05
  1.85209783290786164E-05  1.87539435574760567E-05  1.89898391277095654E-05
  1.92287018989419050E-05  1.94705691939670566E-05  1.97154788050419405E-05
  1.99634689997915534E-05  2.02145785271883879E-05  2.04688466236069794E-05
  2.07263130189547007E-05  2.09870179428796455E-05  2.12510021310565654E-05
  2.15183068315519836E-05  2.17889738112691634E-05  2.20630453624743718E-05
  2.23405643094050749E-05  2.26215740149613353E-05  2.29061183874814051E-05
  2.31942418876023808E-05  2.34859895352073443E-05  2.37814069164597982E-05
  2.40805401909265799E-05  2.43834360987904516E-05  2.46901419681532460E-05
  2.50007057224310495E-05  2.53151758878423131E-05  2.56336016009901548E-05
  2.59560326165401418E-05  2.62825193149944225E-05  2.66131127105638715E-05
  2.69478644591391437E-05  2.72868268663619906E-05  2.76300528957982098E-05
  2.79775961772131775E-05  2.83295110149516973E-05  2.86858523964231402E-05
  2.90466760006933188E-05  2.94120382071845498E-05  2.97819961044849119E-05
  3.01566074992685421E-05  3.05359309253280334E-05  3.09200256527204082E-05
  3.13089516970283256E-05  3.17027698287374618E-05  3.21015415827321282E-05
  3.25053292679101935E-05  3.29141959769189415E-05  3.33282055960135653E-05
  3.37474228150393287E-05  3.41719131375396102E-05  3.46017428909909207E-05
  3.50369792371667174E-05  3.54776901826316403E-05  3.59239445893675140E-05
  3.63758121855333152E-05  3.68333635763602664E-05  3.72966702551840603E-05
  3.77658046146159168E-05  3.82408399578539353E-05  3.87218505101369657E-05
  3.92089114303424140E-05  3.97020988227299746E-05  4.02014897488331662E-05
  4.07071622395001835E-05  4.12191953070864889E-05  4.17376689578006225E-05
  4.22626642042053314E-05  4.27942630778760364E-05  4.33325486422182632E-05
  4.38776050054465999E-05  4.44295173337267107E-05  4.49883718644827324E-05
  4.55542559198721789E-05  4.61272579204299551E-05  4.67074673988844398E-05
  4.72949750141470751E-05  4.78898725654779966E-05  4.84922530068300278E-05
  4.91022104613726321E-05  4.97198402361990479E-05  5.03452388372181708E-05
  5.09785039842337463E-05  5.16197346262134733E-05  5.22690309567497204E-05
  5.29264944297151208E-05  5.35922277751149564E-05  5.42663350151388453E-05
  5.49489214804146066E-05  5.56400938264661372E-05  5.63399600503786973E-05
  5.70486295076736699E-05  5.77662129293955126E-05  5.84928224394138898E-05
  5.92285715719429969E-05  5.99735752892816901E-05  6.07279499997765139E-05
  6.14918135760107309E-05  6.22652853732223141E-05  6.30484862479531807E-05
  6.38415385769334180E-05  6.46445662762029172E-05  6.54576948204734215E-05
  6.62810512627343980E-05  6.71147642541050101E-05  6.79589640639363906E-05
  6.88137826001663459E-05  6.96793534299302279E-05  7.05558118004313525E-05
  7.14432946600732105E-05  7.23419406798582172E-05  7.32518902750552760E-05
  7.41732856271398695E-05  7.51062707060105004E-05  7.60509912924838406E-05
  7.70075950010735608E-05  7.79762313030553633E-05  7.89570515498221059E-05
  7.99502089965329217E-05  8.09558588260594089E-05  8.19741581732334474E-05
  8.30052661493997830E-05  8.40493438672774068E-05  8.51065544661340929E-05
  8.61770631372767230E-05  8.72610371498631725E-05  8.83586458770382367E-05
  8.94700608223985725E-05  9.05954556467907472E-05  9.17350061954456069E-05
  9.28888905254548325E-05  9.40572889335925709E-05  9.52403839844871404E-05
  9.64383605391474472E-05  9.76514057838473508E-05  9.88797092593743084E-05
  1.00123462890645400E-04  1.01382861016695807E-04  1.02658100421045291E-04
  1.03949380362444913E-04  1.05256902606012918E-04  1.06580871454759943E-04
  1.07921493781512151E-04  1.09278979061235885E-04  1.10653539403767555E-04
  1.12045389586957545E-04  1.13454747090228604E-04  1.14881832128557886E-04
  1.16326867686886395E-04  1.17790079554959580E-04  1.19271696362609127E-04
  1.20771949615475487E-04  1.22291073731181600E-04  1.23829306075961556E-04
  1.25386887001748318E-04  1.26964059883730840E-04  1.28561071158380557E-04
  1.30178170361958210E-04  1.31815610169504709E-04  1.33473646434320868E-04
  1.35152538227946759E-04  1.36852547880640755E-04  1.38573941022369636E-04
  1.40316986624314396E-04  1.42081957040896060E-04  1.43869128052333495E-04
  1.45678778907733122E-04  1.47511192368722722E-04  1.49366654753634048E-04
  1.51245455982239183E-04  1.53147889621052974E-04  1.55074252929201861E-04
  1.57024846904871773E-04  1.58999976332340414E-04  1.60999949829598648E-04
  1.63025079896574862E-04  1.65075682963961983E-04  1.67152079442661191E-04
  1.69254593773847151E-04  1.71383554479661129E-04  1.73539294214545257E-04
  1.75722149817218834E-04  1.77932462363310673E-04  1.80170577218653522E-04
  1.82436844093246349E-04  1.84731617095899544E-04  1.87055254789563380E-04
  1.89408120247354784E-04  1.91790581109289003E-04  1.94203009639722150E-04
  1.96645782785520769E-04  1.99119282234958592E-04  2.01623894477356798E-04
  2.04160010863474424E-04  2.06728027666655876E-04  2.09328346144751858E-04
  2.11961372602814826E-04  2.14627518456585501E-04  2.17327200296778500E-04
  2.20060839954173114E-04  2.22828864565528004E-04  2.25631706640320133E-04
  2.28469804128325881E-04  2.31343600488052495E-04  2.34253544756027148E-04
  2.37200091616962706E-04  2.40183701474800786E-04  2.43204840524651573E-04
  2.46263980825638898E-04  2.49361600374657731E-04  2.52498183181065403E-04
  2.55674219342306693E-04  2.58890205120493246E-04  2.62146643019946582E-04
  2.65444041865712708E-04  2.68782916883070786E-04  2.72163789778034925E-04
  2.75587188818873286E-04  2.79053648918651154E-04  2.82563711718811542E-04
  2.86117925673808396E-04  2.89716846136803339E-04  2.93361035446440446E-04
  2.97051063014713889E-04  3.00787505415938273E-04  3.04570946476841013E-04
  3.08401977367785151E-04  3.12281196695141593E-04  3.16209210594822797E-04
  3.20186632826991954E-04  3.24214084871965219E-04  3.28292196027318449E-04
  3.32421603506216363E-04  3.36602952536979333E-04  3.40836896463900089E-04
  3.45124096849331599E-04  3.49465223577056150E-04  3.53860954956957048E-04
  3.58311977831005774E-04  3.62818987680581847E-04  3.67382688735144139E-04
  3.72003794082267155E-04  3.76683025779063019E-04  3.81421114965004536E-04
  3.86218801976166432E-04  3.91076836460905607E-04  3.95995977496993782E-04
  4.00976993710225750E-04  4.06020663394519160E-04  4.11127774633523188E-04
  4.16299125423759886E-04  4.21535523799311225E-04  4.26837787958076669E-04
  4.32206746389618977E-04  4.37643238004615945E-04  4.43148112265943429E-04
  4.48722229321404237E-04  4.54366460138128818E-04  4.60081686638665998E-04
  4.65868801838783609E-04  4.71728709987006233E-04  4.77662326705903875E-04
  4.83670579135160573E-04  4.89754406076442885E-04  4.95914758140087461E-04
  5.02152597893638095E-04  5.08468900012246897E-04  5.14864651430970550E-04
  5.21340851498980720E-04  5.27898512135713564E-04  5.34538657988985763E-04
  5.41262326595095948E-04  5.48070568540943276E-04  5.54964447628183456E-04
  5.61945041039449401E-04  5.69013439506663968E-04  5.76170747481468412E-04
  5.83418083307794951E-04  5.90756579396611967E-04  5.98187382402862980E-04
  6.05711653404636483E-04  6.13330568084584295E-04  6.21045316913625849E-04
  6.28857105336961945E-04  6.36767153962426355E-04  6.44776698751210438E-04
  6.52886991210982958E-04  6.61099298591440697E-04  6.69414904082320629E-04
  6.77835107013898290E-04  6.86361223060013410E-04  6.94994584443644516E-04
  7.03736540145072061E-04  7.12588456112660663E-04  7.21551715476289072E-04
  7.30627718763469285E-04  7.39817884118179961E-04  7.49123647522455228E-04
  7.58546463020759129E-04  7.68087802947185500E-04  7.77749158155509194E-04
  7.87532038252137536E-04  7.97437971831989247E-04  8.07468506717339083E-04
  8.17625210199671788E-04  8.27909669284569434E-04  8.38323490939688184E-04
  8.48868302345848679E-04  8.59545751151285782E-04  8.70357505729100621E-04
  8.81305255437941611E-04  8.92390710885974394E-04  9.03615604198166082E-04
  9.14981689286933019E-04  9.26490742126196624E-04  9.38144561028877565E-04
  9.49944966927889303E-04  9.61893803660661471E-04  9.73992938257242863E-04
  9.86244261232031936E-04  9.98649686879167801E-04  1.01121115357164729E-03
  1.02393062406419739E-03  1.03681008579995957E-03  1.04985155122103570E-03
  1.06305705808292937E-03  1.07642866977295513E-03  1.08996847563264392E-03
  1.10367859128420766E-03  1.11756115896111184E-03  1.13161834784279952E-03
  1.14585235439363308E-03  1.16026540270609542E-03  1.17485974484830770E-03
  1.18963766121592458E-03  1.20460146088844288E-03  1.21975348199000592E-03
  1.23509609205473729E-03  1.25063168839667374E-03  1.26636269848435352E-03
  1.28229158032010606E-03  1.29842082282412632E-03  1.31475294622337025E-03
  1.33129050244534634E-03  1.34803607551686223E-03  1.36499228196777810E-03
  1.38216177123985000E-03  1.39954722610070815E-03  1.41715136306304421E-03
  1.43497693280907686E-03  1.45302672062034427E-03  1.47130354681291437E-03
  1.48981026717806423E-03  1.50854977342850210E-03  1.52752499365020763E-03
  1.54673889275994516E-03  1.56619447296854077E-03  1.58589477424998532E-03
  1.60584287481643426E-03  1.62604189159918462E-03  1.64649498073570670E-03
  1.66720533806278886E-03  1.68817619961589890E-03  1.70941084213481996E-03
  1.73091258357564661E-03  1.75268478362922749E-03  1.77473084424611526E-03
  1.79705421016813460E-03  1.81965836946662769E-03  1.84254685408747221E-03
  1.86572324040295981E-03  1.88919114977060426E-03  1.91295424909898961E-03
  1.93701625142073206E-03  1.96138091647264775E-03  1.98605205128322406E-03
  2.01103351076746800E-03  2.03632919832924877E-03  2.06194306647121276E-03
  2.08787911741236624E-03  2.11414140371344065E-03  2.14073402891009918E-03
  2.16766114815413217E-03  2.19492696886270560E-03  2.22253575137577484E-03
  2.25049180962178267E-03  2.27879951179170512E-03  2.30746328102159927E-03
  2.33648759608372268E-03  2.36587699208635387E-03  2.39563606118241377E-03
  2.42576945328699381E-03  2.45628187680391576E-03  2.48717809936143276E-03
  2.51846294855717591E-03  2.55014131271248581E-03  2.58221814163620998E-03
  2.61469844739812846E-03  2.64758730511209820E-03  2.68088985372904763E-03
  2.71461129683995715E-03  2.74875690348891756E-03  2.78333200899643805E-03
  2.81834201579309659E-03  2.85379239426368199E-03  2.88968868360195896E-03
  2.92603649267616627E-03  2.96284150090542165E-03  3.00010945914714168E-03
  3.03784619059562031E-03  3.07605759169192906E-03  3.11474963304522691E-03
  3.15392836036569590E-03  3.19359989540918829E-03  3.23377043693376560E-03
  3.27444626166827372E-03  3.31563372529307962E-03  3.35733926343317239E-03
  3.39956939266373645E-03  3.44233071152837871E-03  3.48562990157017666E-03
  3.52947372837566359E-03  3.57386904263197989E-03  3.61882278119730026E-03
  3.66434196818473138E-03  3.71043371605985633E-03  3.75710522675205263E-03
  3.80436379277981733E-03  3.85221679839024269E-03  3.90067172071280940E-03
  3.94973613092771975E-03  3.99941769544888675E-03  4.04972417712184691E-03
  4.10066343643671061E-03  4.15224343275637838E-03  4.20447222556022317E-03
  4.25735797570337554E-03  4.31090894669189460E-03  4.36513350597394611E-03
  4.42004012624723584E-03  4.47563738678289757E-03  4.53193397476599810E-03
  4.58893868665294791E-03  4.64666042954595473E-03  4.70510822258477911E-03
  4.76429119835600212E-03  4.82421860431999500E-03  4.88489980425586227E-03
  4.94634427972455003E-03  5.00856163155035533E-03  5.07156158132109330E-03
  5.13535397290708438E-03  5.19994877399930153E-03  5.26535607766683272E-03
  5.33158610393394666E-03  5.39864920137700030E-03  5.46655584874140670E-03
  5.53531665657897281E-03  5.60494236890581900E-03  5.67544386488114463E-03
  5.74683216050714436E-03  5.81911841035024323E-03  5.89231390928404795E-03
  5.96643009425418518E-03  6.04147854606533908E-03  6.11747099119080463E-03
  6.19441930360473646E-03  6.27233550663749972E-03  6.35123177485434186E-03
  6.43112043595767905E-03  6.51201397271335743E-03  6.59392502490106780E-03
  6.67686639128936381E-03  6.76085103163548851E-03  6.84589206871035784E-03
  6.93200279034904537E-03  7.01919665152699480E-03  7.10748727646241113E-03
  7.19688846074507081E-03  7.28741417349189693E-03  7.37907855952970020E-03
  7.47189594160527996E-03  7.56588082262342563E-03  7.66104788791301030E-03
  7.75741200752159792E-03  7.85498823853894579E-03  7.95379182744966086E-03
  8.05383821251553188E-03  8.15514302618777082E-03  8.25772209754960934E-03
  8.36159145478966234E-03  8.46676732770631872E-03  8.57326615024370242E-03
  8.68110456305950379E-03  8.79029941612512189E-03  8.90086777135852027E-03
  9.01282690529014996E-03  9.12619431176246894E-03  9.24098770466338752E-03
  9.35722502069408733E-03  9.47492442217170126E-03  9.59410429986716322E-03
  9.71478327587883481E-03  9.83698020654224375E-03  9.96071418537640939E-03
  1.00860045460672773E-02  1.02128708654886033E-02  1.03413329667609109E-02
  1.04714109223488783E-02  1.06031250571977063E-02  1.07364959519089566E-02
  1.08715444459562618E-02  1.10082916409415792E-02  1.11467589038923339E-02
  1.12869678706000714E-02  1.14289404490011126E-02  1.15726988225996700E-02
  1.17182654539340989E-02  1.18656630880867031E-02  1.20149147562376869E-02
  1.21660437792638770E-02  1.23190737713825861E-02  1.24740286438414245E-02
  1.26309326086544715E-02  1.27898101823854422E-02  1.29506861899784890E-02
  1.31135857686370989E-02  1.32785343717518566E-02  1.34455577728775869E-02
  1.36146820697605198E-02  1.37859336884161472E-02  1.39593393872582926E-02
  1.41349262612801910E-02  1.43127217462881463E-02  1.44927536231884060E-02
  1.46750500223280390E-02  1.48596394278902796E-02  1.50465506823452971E-02
  1.52358129909568804E-02  1.54274559263457879E-02  1.56215094331106051E-02
  1.58180038325065504E-02  1.60169698271833069E-02  1.62184385059823376E-02
  1.64224413487945829E-02  1.66290102314793110E-02  1.68381774308446891E-02
  1.70499756296911761E-02  1.72644379219182471E-02  1.74815978176953712E-02
  1.77014892486981185E-02  1.79241465734099291E-02  1.81496045824907984E-02
  1.83778985042133379E-02  1.86090640099672681E-02  1.88431372198332066E-02
  1.90801547082264066E-02  1.93201535096116442E-02  1.95631711242899124E-02
  1.98092455242579180E-02  2.00584151591413282E-02  2.03107189622025175E-02
  2.05661963564240276E-02  2.08248872606684836E-02  2.10868320959159590E-02
  2.13520717915799407E-02  2.16206477919024739E-02  2.18926020624300478E-02
  2.21679770965707221E-02  2.24468159222338121E-02  2.27291621085531775E-02
  2.30150597726948396E-02  2.33045535867504906E-02  2.35976887847175534E-02
  2.38945111695670759E-02  2.41950671204006242E-02  2.44994035996969825E-02
  2.48075681606502209E-02  2.51196089545999493E-02  2.54355747385550494E-02
  2.57555148828121569E-02  2.60794793786696989E-02  2.64075188462392745E-02
  2.67396845423550876E-02  2.70760283685829335E-02  2.74166028793300029E-02
  2.77614612900564731E-02  2.81106574855906517E-02  2.84642460285485302E-02
  2.88222821678593040E-02  2.91848218473982172E-02  2.95519217147277649E-02
  2.99236391299490950E-02  3.03000321746645929E-02  3.06811596610532568E-02
  3.10670811410602848E-02  3.14578569157020690E-02  3.18535480444884500E-02
  3.22542163549633248E-02  3.26599244523653395E-02  3.30707357294102028E-02
  3.34867143761957212E-02  3.39079253902317690E-02  3.43344345865962547E-02
  3.47663086082188114E-02  3.52036149362940365E-02  3.56464219008253702E-02
  3.60947986913019159E-02  3.65488153675094171E-02  3.70085428704772026E-02
  3.74740530335629998E-02  3.79454185936768384E-02  3.84227132026464940E-02
  3.89060114387256850E-02  3.93953888182470291E-02  3.98909218074218405E-02
  4.03926878342877049E-02  4.09007653008072389E-02  4.14152335951183392E-02
  4.19361731039385663E-02  4.24636652251261584E-02  4.29977923803980949E-02
  4.35386380282091617E-02  4.40862866767922565E-02  4.46408238973627705E-02
  4.52023363374897888E-02  4.57709117346343300E-02  4.63466389298590534E-02
  4.69296078817096132E-02  4.75199096802706306E-02  4.81176365613992935E-02
  4.87228819211366765E-02  4.93357403303017056E-02  4.99563075492677824E-02
  5.05846805429252394E-02  5.12209574958329486E-02  5.18652378275591339E-02
  5.25176222082165342E-02  5.31782125741919812E-02  5.38471121440739706E-02
  5.45244254347813720E-02  5.52102582778936576E-02  5.59047178361880143E-02
  5.66079126203834007E-02  5.73199525060953188E-02  5.80409487510047672E-02
  5.87710140122416833E-02  5.95102623639885697E-02  6.02588093153045012E-02
  6.10167718281733329E-02  6.17842683357800321E-02  6.25614187610151334E-02
  6.33483445352138602E-02  6.41451686171295304E-02  6.49520155121458692E-02
  6.57690112917319880E-02  6.65962836131404334E-02  6.74339617393546198E-02
  6.82821765592861590E-02  6.91410606082261264E-02  7.00107480885548278E-02
  7.08913748907102348E-02  7.17830786144219302E-02  7.26859985902110484E-02
  7.36002759011605973E-02  7.45260534049607404E-02  7.54634757562297198E-02
  7.64126894291172476E-02  7.73738427401910178E-02  7.83470858716111135E-02
  7.93325708945971791E-02  8.03304517931887480E-02  8.13408844883065918E-02
  8.23640268621151916E-02  8.34000387826917544E-02  8.44490821290069527E-02
  8.55113208162176508E-02  8.65869208212800279E-02  8.76760502088833327E-02
  8.87788791577099473E-02  8.98955799870271299E-02  9.10263271836111026E-02
  9.21712974290120196E-02  9.33306696271603425E-02  9.45046249323204662E-02
  9.56933467773976032E-02  9.68970209025981494E-02  9.81158353844532316E-02
  9.93499806652055478E-02  1.00599649582565731E-01  1.01865037399844940E-01
  1.03146341836463720E-01  1.04443763098847328E-01  1.05757503911707781E-01
  1.07087769549719575E-01  1.08434767869595453E-01  1.09798709342563028E-01
  1.11179807087252572E-01  1.12578276902996779E-01  1.13994337303549159E-01
  1.15428209551228705E-01  1.16880117691490940E-01  1.18350288587936905E-01
  1.19838951957760495E-01  1.21346340407641515E-01  1.22872689470092486E-01
  1.24418237640259374E-01  1.25983226413188432E-01  1.27567900321559596E-01
  1.29172506973894735E-01  1.30797297093248277E-01  1.32442524556381558E-01
  1.34108446433433171E-01  1.35795323028086029E-01  1.37503417918239501E-01
  1.39232997997195823E-01  1.40984333515360688E-01  1.42757698122472187E-01
  1.44553368910358360E-01  1.46371626456232667E-01  1.48212754866536373E-01
  1.50077041821328916E-01  1.51964778619240154E-01  1.53876260222985672E-01
  1.55811785305454420E-01  1.57771656296378959E-01  1.59756179429588474E-01
  1.61765664790860353E-01  1.63800426366370849E-01  1.65860782091755393E-01
  1.67947053901788435E-01  1.70059567780684262E-01  1.72198653813034702E-01
  1.74364646235384613E-01  1.76557883488456135E-01  1.78778708270032838E-01
  1.81027467588504548E-01  1.83304512817090176E-01  1.85610199748739740E-01
  1.87944888651726566E-01  1.90308944325942447E-01  1.92702736159895471E-01
  1.95126638188430568E-01  1.97581029151170484E-01  2.00066292551697028E-01
  2.02582816717473163E-01  2.05130994860518945E-01  2.07711225138854344E-01
  2.10323910718709067E-01  2.12969459837520886E-01  2.15648285867722445E-01
  2.18360807381330319E-01  2.21107448215350444E-01  2.23888637538000368E-01
  2.26704809915770605E-01  2.29556405381325102E-01  2.32443869502256178E-01
  2.35367653450708092E-01  2.38328214073870476E-01  2.41326013965364405E-01
  2.44361521537522441E-01  2.47435211094577695E-01  2.50547562906777765E-01
  2.53699063285424464E-01  2.56890204658864363E-01  2.60121485649429829E-01
  2.63393411151348789E-01  2.66706492409638729E-01  2.70061247099985746E-01
  2.73458199409636005E-01  2.76897880119299555E-01  2.80380826686084328E-01
  2.83907583327478563E-01  2.87478701106381629E-01  2.91094738017212584E-01
  2.94756259073096050E-01  2.98463836394145421E-01  3.02218049296861357E-01
  3.06019484384646767E-01  3.09868735639468762E-01  3.13766404514667752E-01
  3.17713100028934381E-01  3.21709438861473407E-01  3.25756045448356901E-01
  3.29853552080097534E-01  3.34002599000443490E-01  3.38203834506416279E-01
  3.42457915049612316E-01  3.46765505338770319E-01  3.51127278443637392E-01
  3.55543915900135843E-01  3.60016107816852893E-01  3.64544552982875303E-01
  3.69129958976972372E-01  3.73773042278160328E-01  3.78474528377652053E-01
  3.83235151892214521E-01  3.88055656678958805E-01  3.92936795951563889E-01
  3.97879332397972463E-01  4.02884038299560765E-01  4.07951695651806612E-01
  4.13083096286482876E-01  4.18279041995377299E-01  4.23540344655578882E-01
  4.28867826356333026E-01  4.34262319527493112E-01  4.39724667069593622E-01
  4.45255722485549787E-01  4.50856350014024077E-01  4.56527424764463285E-01
  4.62269832853833329E-01  4.68084471545082925E-01  4.73972249387335842E-01
  4.79934086357859613E-01  4.85970914005811105E-01  4.92083675597790593E-01
  4.98273326265235184E-01  5.04540833153652835E-01  5.10887175573746966E-01
  5.17313345154433502E-01  5.23820345997781711E-01  5.30409194835913644E-01
  5.37080921189863725E-01  5.43836567530449289E-01  5.50677189441156512E-01
  5.57603855783074476E-01  5.64617648861913346E-01  5.71719664597109434E-01
  5.78911012693071547E-01  5.86192816812571516E-01  5.93566214752315968E-01
  6.01032358620736451E-01  6.08592415018000099E-01  6.16247565218301263E-01
  6.23999005354434200E-01  6.31847946604688571E-01  6.39795615382105609E-01
  6.47843253526099394E-01  6.55992118496503851E-01  6.64243483570050919E-01
  6.72598638039318519E-01  6.81058887414193515E-01  6.89625553625850762E-01
  6.98299975233316217E-01  7.07083507632615405E-01  7.15977523268553462E-01
  7.24983411849171255E-01  7.34102580562879248E-01  7.43336454298343496E-01
  7.52686475867123006E-01  7.62154106229107953E-01  7.71740824720807184E-01
  7.81448129286486437E-01  7.91277536712235330E-01  8.01230582862963558E-01
  8.11308822922379047E-01  8.21513831635998115E-01  8.31847203557191883E-01
  8.42310553296347631E-01  8.52905515773151546E-01  8.63633746472043384E-01
  8.74496921700899321E-01  8.85496738852947440E-01  8.96634916671998350E-01
  9.07913195520998806E-01  9.19333337653961524E-01  9.30897127491332577E-01
  9.42606371898797257E-01  9.54462900469618791E-01  9.66468565810510327E-01
  9.78625243831103608E-01  9.90934834037075718E-01  1.00339925982693678E+00
  1.01602046879257757E+00  1.02880043302357871E+00  1.04174114941534879E+00
  1.05484463998115574E+00  1.06811295216805568E+00  1.08154815917682479E+00
  1.09515236028589391E+00  1.10892768117936069E+00  1.12287627427914449E+00
  1.13700031908129207E+00  1.15130202249654112E+00  1.16578361919514939E+00
  1.18044737195605998E+00  1.19529557202047987E+00  1.21033053944987357E+00
  1.22555462348849287E+00  1.24097020293044435E+00  1.25657968649137541E+00
  1.27238551318485382E+00  1.28839015270345403E+00  1.30459610580466401E+00
  1.32100590470162960E+00  1.33762211345880999E+00  1.35444732839263393E+00
  1.37148417847716164E+00  1.38873532575488223E+00  1.40620346575265853E+00
  1.42389132790289952E+00  1.44180167597005715E+00  1.45993730848245096E+00
  1.47830105916956067E+00  1.49689579740479495E+00  1.51572442865382939E+00
  1.53478989492860896E+00  1.55409517524702268E+00  1.57364328609839998E+00
  1.59343728191483502E+00  1.61348025554843977E+00  1.63377533875462788E+00
  1.65432570268143531E+00  1.67513455836503855E+00  1.69620515723147691E+00
  1.71754079160468609E+00  1.73914479522095022E+00  1.76102054374978212E+00
  1.78317145532139909E+00  1.80560099106080374E+00  1.82831265562858225E+00
  1.85130999776853677E+00  1.87459661086215901E+00  1.89817613349012460E+00
  1.92205225000082125E+00  1.94622869108602203E+00  1.97070923436384215E+00
  1.99549770496896706E+00  2.02059797615036452E+00  2.04601396987647810E+00
  2.07174965744802941E+00  2.09780906011856727E+00  2.12419624972277088E+00
  2.15091534931270445E+00  2.17797053380204320E+00  2.20536603061840042E+00
  2.23310612036389733E+00  2.26119513748398715E+00  2.28963747094474579E+00
  2.31843756491864772E+00  2.34759991947896163E+00  2.37712909130292749E+00
  2.40702969438371195E+00  2.43730640075138316E+00  2.46796394120291529E+00
  2.49900710604136700E+00  2.53044074582441247E+00  2.56226977212220941E+00
  2.59449915828487931E+00  2.62713394021958502E+00  2.66017921717739103E+00
  2.69364015255006262E+00  2.72752197467681867E+00  2.76182997766130445E+00
  2.79656952219879118E+00  2.83174603641378164E+00  2.86736501670819921E+00
  2.90343202862017158E+00  2.93995270769369421E+00  2.97693276035917886E+00
  3.01437796482508169E+00  3.05229417198079345E+00  3.09068730631081223E+00
  3.12956336682049407E+00  3.16892842797339380E+00  3.20878864064039382E+00
  3.24915023306083040E+00  3.29001951181562458E+00  3.33140286281273701E+00
  3.37330675228496091E+00  3.41573772780026985E+00  3.45870241928492561E+00
  3.50220754005937351E+00  3.54625988788725177E+00  3.59086634603754096E+00
  3.63603388436006636E+00  3.68176956037459835E+00  3.72808052037355031E+00
  3.77497400053864895E+00  3.82245732807158323E+00  3.87053792233887162E+00
  3.91922329603120279E+00  3.96852105633725438E+00  4.01843890613237686E+00
  4.06898464518216674E+00  4.12016617136117258E+00  4.17199148188700519E+00
  4.22446867456985764E+00  4.27760594907785929E+00  4.33141160821826965E+00
  4.38589405923478015E+00  4.44106181512122600E+00  4.49692349595168750E+00
  4.55348783022745263E+00  4.61076365624084161E+00  4.66875992345618140E+00
  4.72748569390823636E+00  4.78695014361809967E+00  4.84716256402702950E+00
  4.90813236344822545E+00  4.96986906853687493E+00  5.03238232577876943E+00
  5.09568190299751844E+00  5.15977769088085658E+00  5.22467970452605357E+00
  5.29039808500476649E+00  5.35694310094767001E+00  5.42432515014887162E+00
  5.49255476119066000E+00  5.56164259508858283E+00  5.63159944695722903E+00
  5.70243624769705004E+00  5.77416406570226037E+00  5.84679410859036430E+00
  5.92033772495334087E+00  5.99480640613085214E+00  6.07021178800585925E+00
  6.14656565282267486E+00  6.22387993102802817E+00  6.30216670313519778E+00
  6.38143820161157826E+00  6.46170681279010939E+00  6.54298507880457247E+00
  6.62528569954940494E+00  6.70862153466405164E+00  6.79300560554227584E+00
  6.87845109736685423E+00  6.96497136116970061E+00  7.05257991591807532E+00
  7.14129045062690970E+00  7.23111682649771037E+00  7.32207307908448524E+00
  7.41417342048672801E+00  7.50743224157017330E+00  7.60186411421536867E+00
  7.69748379359450929E+00  7.79430622047706390E+00  7.89234652356419453E+00
  7.99162002185273579E+00  8.09214222702878239E+00  8.19392884589137971E+00
  8.29699578280683880E+00  8.40135914219371571E+00  8.50703523103925896E+00
  8.61404056144736607E+00  8.72239185321858379E+00  8.83210603646272574E+00
  8.94320025424411114E+00  9.05569186526030379E+00  9.16959844655440648E+00
  9.28493779626146143E+00  9.40172793638955007E+00  9.51998711563564903E+00
  9.63973381223712700E+00  9.76098673685897822E+00  9.88376483551732576E+00
  1.00080872925399174E+01  1.01339735335635623E+01  1.02614432285695560E+01
  1.03905162949571004E+01  1.05212129006553816E+01  1.06535534672749836E+01
  1.07875586732986530E+01  1.09232494573124832E+01  1.10606470212775605E+01
  1.11997728338427525E+01  1.13406486336993702E+01  1.14832964329777116E+01
  1.16277385206866519E+01  1.17739974661962901E+01  1.19220961227643834E+01
  1.20720576311073735E+01  1.22239054230159923E+01  1.23776632250166898E+01
  1.25333550620788667E+01  1.26910052613687814E+01  1.28506384560508575E+01
  1.30122795891364973E+01  1.31759539173816282E+01  1.33416870152330578E+01
  1.35095047788244678E+01  1.36794334300228950E+01  1.38514995205257616E+01