Al    ONCVPSP-3.3.0  r_core=   1.76802   1.76802   1.70587
13.0000      3.0000      180430    zatom,zion,pspd
8 -116133   2     4   600     0    pspcod,pspxc,lmax,lloc,mmax,r2well
5.99000000  5.00000000  0.00000000    rchrg fchrg qchrg
2     3     2     0    nproj
3     1           extension_switch
4     3     0    nprojso
0                         7.2682065415842D-01  5.8347632719317D+00
1  0.0000000000000D+00  3.3369303431563D-09 -1.2974491481188D-09
2  1.0000000000000D-02 -1.8284666313682D-02  2.7060935287789D-02
3  2.0000000000000D-02 -3.6279693715350D-02  5.4011869795657D-02
4  3.0000000000000D-02 -5.3699801426480D-02  8.0744470507181D-02
5  4.0000000000000D-02 -7.0268362574357D-02  1.0715371573177D-01
6  5.0000000000000D-02 -8.5721576105251D-02  1.3313949060026D-01
7  6.0000000000000D-02 -9.9812455055108D-02  1.5860811129493D-01
8  7.0000000000000D-02 -1.1231457393748D-01  1.8347375580377D-01
9  8.0000000000000D-02 -1.2302552134529D-01  2.0765978028640D-01
10  9.0000000000000D-02 -1.3177000794879D-01  2.3109990172750D-01
11  1.0000000000000D-01 -1.3840258485127D-01  2.5373922941204D-01
12  1.1000000000000D-01 -1.4280993267192D-01  2.7553512985929D-01
13  1.2000000000000D-01 -1.4491268768898D-01  2.9645791217126D-01
14  1.3000000000000D-01 -1.4466677781399D-01  3.1649132325510D-01
15  1.4000000000000D-01 -1.4206424799337D-01  3.3563284503221D-01
16  1.5000000000000D-01 -1.3713356175343D-01  3.5389378851628D-01
17  1.6000000000000D-01 -1.2993937292145D-01  3.7129918248716D-01
18  1.7000000000000D-01 -1.2058176897155D-01  3.8788745737173D-01
19  1.8000000000000D-01 -1.0919499485472D-01  4.0370992782485D-01
20  1.9000000000000D-01 -9.5945673480078D-02  4.1883008034569D-01
21  2.0000000000000D-01 -8.1030546115974D-02  4.3332267502658D-01
22  2.1000000000000D-01 -6.4673762779244D-02  4.4727267317665D-01
23  2.2000000000000D-01 -4.7123759084155D-02  4.6077400505293D-01
24  2.3000000000000D-01 -2.8649761940569D-02  4.7392819423399D-01
25  2.4000000000000D-01 -9.5379718425321D-03  4.8684285725328D-01
26  2.5000000000000D-01  9.9125258031502D-03  4.9963009894116D-01
27  2.6000000000000D-01  2.9394063857431D-02  5.1240482548190D-01
28  2.7000000000000D-01  4.8594851453195D-02  5.2528299845087D-01
29  2.8000000000000D-01  6.7203524713558D-02  5.3837985404109D-01
30  2.9000000000000D-01  8.4913726500901D-02  5.5180811230131D-01
31  3.0000000000000D-01  1.0142865081028D-01  5.6567620148262D-01
32  3.1000000000000D-01  1.1646548760443D-01  5.8008652251996D-01
33  3.2000000000000D-01  1.2975970495765D-01  5.9513377825990D-01
34  3.3000000000000D-01  1.4106910732094D-01  6.1090339129030D-01
35  3.4000000000000D-01  1.5017761151880D-01  6.2747003313974D-01
36  3.5000000000000D-01  1.5689868570356D-01  6.4489628620925D-01
37  3.6000000000000D-01  1.6107840088090D-01  6.6323145809178D-01
38  3.7000000000000D-01  1.6259804972330D-01  6.8251056595040D-01
39  3.8000000000000D-01  1.6137629314023D-01  7.0275350638801D-01
40  3.9000000000000D-01  1.5737080140007D-01  7.2396442377979D-01
41  4.0000000000000D-01  1.5057936341402D-01  7.4613128738728D-01
42  4.1000000000000D-01  1.4104044500719D-01  7.6922568476426D-01
43  4.2000000000000D-01  1.2883318451973D-01  7.9320283603819D-01
44  4.3000000000000D-01  1.1407682180010D-01  8.1800183064466D-01
45  4.4000000000000D-01  9.6929564468636D-02  8.4354608504813D-01
46  4.5000000000000D-01  7.7586903137153D-02  8.6974401694049D-01
47  4.6000000000000D-01  5.6279394961833D-02  8.9648992841154D-01
48  4.7000000000000D-01  3.3269942377569D-02  9.2366508767308D-01
49  4.8000000000000D-01  8.8506010071294D-03  9.5113899613165D-01
50  4.9000000000000D-01 -1.6661042538809D-02  9.7877082498218D-01
51  5.0000000000000D-01 -4.2925876051646D-02  1.0064110030730D+00
52  5.1000000000000D-01 -6.9587597787172D-02  1.0339029356051D+00
53  5.2000000000000D-01 -9.6277325770632D-02  1.0610848313085D+00
54  5.3000000000000D-01 -1.2261841876099D-01  1.0877916141096D+00
55  5.4000000000000D-01 -1.4823144395387D-01  1.1138568939973D+00
56  5.5000000000000D-01 -1.7273922403513D-01  1.1391149708190D+00
57  5.6000000000000D-01 -1.9577189464038D-01  1.1634028441233D+00
58  5.7000000000000D-01 -2.1697190265069D-01  1.1865622019082D+00
59  5.8000000000000D-01 -2.3599887608200D-01  1.2084413612471D+00
60  5.9000000000000D-01 -2.5253429760802D-01  1.2288971342505D+00
61  6.0000000000000D-01 -2.6628591596778D-01  1.2477965936682D+00
62  6.1000000000000D-01 -2.7699183266159D-01  1.2650187136491D+00
63  6.2000000000000D-01 -2.8442420533300D-01  1.2804558627150D+00
64  6.3000000000000D-01 -2.8839251410918D-01  1.2940151278887D+00
65  6.4000000000000D-01 -2.8874634277438D-01  1.3056194510832D+00
66  6.5000000000000D-01 -2.8537763297206D-01  1.3152085613049D+00
67  6.6000000000000D-01 -2.7822237658711D-01  1.3227396889176D+00
68  6.7000000000000D-01 -2.6726171891033D-01  1.3281880511040D+00
69  6.8000000000000D-01 -2.5252245308610D-01  1.3315471007200D+00
70  6.9000000000000D-01 -2.3407689458619D-01  1.3328285339406D+00
71  7.0000000000000D-01 -2.1204213288418D-01  1.3320620553626D+00
72  7.1000000000000D-01 -1.8657866604227D-01  1.3292949025496D+00
73  7.2000000000000D-01 -1.5788843246320D-01  1.3245911353187D+00
74  7.3000000000000D-01 -1.2621226246978D-01  1.3180306983408D+00
75  7.4000000000000D-01 -9.1826780520244D-02  1.3097082687886D+00
76  7.5000000000000D-01 -5.5040796674331D-02  1.2997319038102D+00
77  7.6000000000000D-01 -1.6191233268341D-02  1.2882215054582D+00
78  7.7000000000000D-01  2.4361360503912D-02  1.2753071233353D+00
79  7.8000000000000D-01  6.6237647276273D-02  1.2611271176043D+00
80  7.9000000000000D-01  1.0904462931437D-01  1.2458262070884D+00
81  8.0000000000000D-01  1.5238099677653D-01  1.2295534289551D+00
82  8.1000000000000D-01  1.9584262416311D-01  1.2124600378870D+00
83  8.2000000000000D-01  2.3902814003906D-01  1.1946973736899D+00
84  8.3000000000000D-01  2.8154449346947D-01  1.1764147269392D+00
85  8.4000000000000D-01  3.2301243999592D-01  1.1577572325211D+00
86  8.5000000000000D-01  3.6307187042000D-01  1.1388638207724D+00
87  8.6000000000000D-01  4.0138690715093D-01  1.1198652553602D+00
88  8.7000000000000D-01  4.3765069540674D-01  1.1008822860775D+00
89  8.8000000000000D-01  4.7158982010656D-01  1.0820239433730D+00
90  8.9000000000000D-01  5.0296828381545D-01  1.0633859996916D+00
91  9.0000000000000D-01  5.3159098655033D-01  1.0450496206099D+00
92  9.1000000000000D-01  5.5730665455931D-01  1.0270802263161D+00
93  9.2000000000000D-01  5.8001017226978D-01  1.0095265812561D+00
94  9.3000000000000D-01  5.9964427937150D-01  9.9242012676389D-01
95  9.4000000000000D-01  6.1620060336345D-01  9.7577456826616D-01
96  9.5000000000000D-01  6.2972000672231D-01  9.5958572523766D-01
97  9.6000000000000D-01  6.4029223713013D-01  9.4383164849613D-01
98  9.7000000000000D-01  6.4805487851234D-01  9.2847300582321D-01
99  9.8000000000000D-01  6.5319161032661D-01  9.1345373314917D-01
100  9.9000000000000D-01  6.5592979209148D-01  8.9870194484294D-01
101  1.0000000000000D+00  6.5653739951837D-01  8.8413109302028D-01
102  1.0100000000000D+00  6.5531934779569D-01  8.6964136222544D-01
103  1.0200000000000D+00  6.5261324630498D-01  8.5512128245978D-01
104  1.0300000000000D+00  6.4878463742539D-01  8.4044954028506D-01
105  1.0400000000000D+00  6.4422177938680D-01  8.2549696489800D-01
106  1.0500000000000D+00  6.3933004031835D-01  8.1012866328668D-01
107  1.0600000000000D+00  6.3452597656654D-01  7.9420627627972D-01
108  1.0700000000000D+00  6.3023117339493D-01  7.7759032534419D-01
109  1.0800000000000D+00  6.2686593036825D-01  7.6014261836037D-01
110  1.0900000000000D+00  6.2484287659062D-01  7.4172868148658D-01
111  1.1000000000000D+00  6.2456060308929D-01  7.2222018340045D-01
112  1.1100000000000D+00  6.2639740029233D-01  7.0149731794296D-01
113  1.1200000000000D+00  6.3070518813348D-01  6.7945111134803D-01
114  1.1300000000000D+00  6.3780372432836D-01  6.5598562100444D-01
115  1.1400000000000D+00  6.4797517462924D-01  6.3101999336661D-01
116  1.1500000000000D+00  6.6145912378646D-01  6.0449035059086D-01
117  1.1600000000000D+00  6.7844810156527D-01  5.7635147716719D-01
118  1.1700000000000D+00  6.9908369133236D-01  5.4657828045871D-01
119  1.1800000000000D+00  7.2345328381800D-01  5.1516700095898D-01
120  1.1900000000000D+00  7.5158752798358D-01  4.8213615220826D-01
121  1.2000000000000D+00  7.8345852295026D-01  4.4752717339582D-01
122  1.2100000000000D+00  8.1897878764621D-01  4.1140478050036D-01
123  1.2200000000000D+00  8.5800103283482D-01  3.7385700646379D-01
124  1.2300000000000D+00  9.0031874907734D-01  3.3499492519541D-01
125  1.2400000000000D+00  9.4566761513127D-01  2.9495205770905D-01
126  1.2500000000000D+00  9.9372772231427D-01  2.5388346216972D-01
127  1.2600000000000D+00  1.0441265937640D+00  2.1196451605607D-01
128  1.2700000000000D+00  1.0964429707062D+00  1.6938940128654D-01
129  1.2800000000000D+00  1.1502113309231D+00  1.2636930583757D-01
130  1.2900000000000D+00  1.2049270851234D+00  8.3130362933841D-02
131  1.3000000000000D+00  1.2600523946834D+00  3.9911349755787D-02
132  1.3100000000000D+00  1.3150225468934D+00 -3.0388295474081D-03
133  1.3200000000000D+00  1.3692528065992D+00 -4.5463845069232D-02
134  1.3300000000000D+00  1.4221456658485D+00 -8.7102796163556D-02
135  1.3400000000000D+00  1.4730984029973D+00 -1.2769318591581D-01
136  1.3500000000000D+00  1.5215108545763D+00 -1.6697397755178D-01
137  1.3600000000000D+00  1.5667933067981D+00 -2.0468869662433D-01
138  1.3700000000000D+00  1.6083744090024D+00 -2.4058853881958D-01
139  1.3800000000000D+00  1.6457089869440D+00 -2.7443544543941D-01
140  1.3900000000000D+00  1.6782856591294D+00 -3.0600510307202D-01
141  1.4000000000000D+00  1.7056341288766D+00 -3.3508983686099D-01
142  1.4100000000000D+00  1.7273327523642D+00 -3.6150135859998D-01
143  1.4200000000000D+00  1.7430131650292D+00 -3.8507329689468D-01
144  1.4300000000000D+00  1.7523637968825D+00 -4.0566348726396D-01
145  1.4400000000000D+00  1.7551306075831D+00 -4.2315582710462D-01
146  1.4500000000000D+00  1.7511185650464D+00 -4.3746183561923D-01
147  1.4600000000000D+00  1.7401954945277D+00 -4.4852187505904D-01
148  1.4700000000000D+00  1.7222944330093D+00 -4.5630604566046D-01
149  1.4800000000000D+00  1.6974156172607D+00 -4.6081475783791D-01
150  1.4900000000000D+00  1.6656281937935D+00 -4.6207897546502D-01
151  1.5000000000000D+00  1.6270714078113D+00 -4.6016014268298D-01
152  1.5100000000000D+00  1.5819552812158D+00 -4.5514979678565D-01
153  1.5200000000000D+00  1.5305606307779D+00 -4.4716887385557D-01
154  1.5300000000000D+00  1.4732383829250D+00 -4.3636671384950D-01
155  1.5400000000000D+00  1.4104080414666D+00 -4.2291976696652D-01
156  1.5500000000000D+00  1.3425553152608D+00 -4.0703001421210D-01
157  1.5600000000000D+00  1.2702287350232D+00 -3.8892309693533D-01
158  1.5700000000000D+00  1.1940354023161D+00 -3.6884618417581D-01
159  1.5800000000000D+00  1.1146356709209D+00 -3.4706556344763D-01
160  1.5900000000000D+00  1.0327370253967D+00 -3.2386400456088D-01
161  1.6000000000000D+00  9.4908700233342D-01 -2.9953788137469D-01
162  1.6100000000000D+00  8.6446544144365D-01 -2.7439411282804D-01
163  1.6200000000000D+00  7.7967602456138D-01 -2.4874692112826D-01
164  1.6300000000000D+00  6.9553734702472D-01 -2.2291446907520D-01
165  1.6400000000000D+00  6.1287358102687D-01 -1.9721539209767D-01
166  1.6500000000000D+00  5.3250492877904D-01 -1.7196528348505D-01
167  1.6600000000000D+00  4.5523798109165D-01 -1.4747316222401D-01
168  1.6700000000000D+00  3.8185614219855D-01 -1.2403797744680D-01
169  1.6800000000000D+00  3.1311025453260D-01 -1.0194518631972D-01
170  1.6900000000000D+00  2.4970955347777D-01 -8.1463454135075D-02
171  1.7000000000000D+00  1.9231308261202D-01 -6.2841515508766D-02
172  1.7100000000000D+00  1.4154427236275D-01 -4.6312626077022D-02
173  1.7200000000000D+00  9.7906833040519D-02 -3.2066777148773D-02
174  1.7300000000000D+00  6.1705181339280D-02 -2.0224330862358D-02
175  1.7400000000000D+00  3.3520433489063D-02 -1.0991638641097D-02
176  1.7500000000000D+00  1.4267998870673D-02 -4.6799266814790D-03
177  1.7600000000000D+00  3.6594134068960D-03 -1.2008916316721D-03
178  1.7700000000000D+00 -4.9763604437986D-04  1.6259693810281D-04
179  1.7800000000000D+00 -8.5873581814914D-04  2.8140976605488D-04
180  1.7900000000000D+00  4.4803582485155D-05 -1.4687748006344D-05
181  1.8000000000000D+00  3.0093605393591D-04 -9.8672027859015D-05
182  1.8100000000000D+00  2.7196502093279D-05 -8.9182498620754D-06
183  1.8200000000000D+00 -5.4764650223691D-05  1.7942896965408D-05
184  1.8300000000000D+00 -1.7960583263320D-05  5.8848158329050D-06
185  1.8400000000000D+00  1.6006184997919D-07 -5.0678958157777D-08
186  1.8500000000000D+00  9.7234168188215D-08 -3.0786388772573D-08
187  1.8600000000000D+00  0.0000000000000D+00  0.0000000000000D+00
188  1.8700000000000D+00  0.0000000000000D+00  0.0000000000000D+00
189  1.8800000000000D+00  0.0000000000000D+00  0.0000000000000D+00
190  1.8900000000000D+00  0.0000000000000D+00  0.0000000000000D+00
191  1.9000000000000D+00  0.0000000000000D+00  0.0000000000000D+00
192  1.9100000000000D+00  0.0000000000000D+00  0.0000000000000D+00
193  1.9200000000000D+00  0.0000000000000D+00  0.0000000000000D+00
194  1.9300000000000D+00  0.0000000000000D+00  0.0000000000000D+00
195  1.9400000000000D+00  0.0000000000000D+00  0.0000000000000D+00
196  1.9500000000000D+00  0.0000000000000D+00  0.0000000000000D+00
197  1.9600000000000D+00  0.0000000000000D+00  0.0000000000000D+00
198  1.9700000000000D+00  0.0000000000000D+00  0.0000000000000D+00
199  1.9800000000000D+00  0.0000000000000D+00  0.0000000000000D+00
200  1.9900000000000D+00  0.0000000000000D+00  0.0000000000000D+00
201  2.0000000000000D+00  0.0000000000000D+00  0.0000000000000D+00
202  2.0100000000000D+00  0.0000000000000D+00  0.0000000000000D+00
203  2.0200000000000D+00  0.0000000000000D+00  0.0000000000000D+00
204  2.0300000000000D+00  0.0000000000000D+00  0.0000000000000D+00
205  2.0400000000000D+00  0.0000000000000D+00  0.0000000000000D+00
206  2.0500000000000D+00  0.0000000000000D+00  0.0000000000000D+00
207  2.0600000000000D+00  0.0000000000000D+00  0.0000000000000D+00
208  2.0700000000000D+00  0.0000000000000D+00  0.0000000000000D+00
209  2.0800000000000D+00  0.0000000000000D+00  0.0000000000000D+00
210  2.0900000000000D+00  0.0000000000000D+00  0.0000000000000D+00
211  2.1000000000000D+00  0.0000000000000D+00  0.0000000000000D+00
212  2.1100000000000D+00  0.0000000000000D+00  0.0000000000000D+00
213  2.1200000000000D+00  0.0000000000000D+00  0.0000000000000D+00
214  2.1300000000000D+00  0.0000000000000D+00  0.0000000000000D+00
215  2.1400000000000D+00  0.0000000000000D+00  0.0000000000000D+00
216  2.1500000000000D+00  0.0000000000000D+00  0.0000000000000D+00
217  2.1600000000000D+00  0.0000000000000D+00  0.0000000000000D+00
218  2.1700000000000D+00  0.0000000000000D+00  0.0000000000000D+00
219  2.1800000000000D+00  0.0000000000000D+00  0.0000000000000D+00
220  2.1900000000000D+00  0.0000000000000D+00  0.0000000000000D+00
221  2.2000000000000D+00  0.0000000000000D+00  0.0000000000000D+00
222  2.2100000000000D+00  0.0000000000000D+00  0.0000000000000D+00
223  2.2200000000000D+00  0.0000000000000D+00  0.0000000000000D+00
224  2.2300000000000D+00  0.0000000000000D+00  0.0000000000000D+00
225  2.2400000000000D+00  0.0000000000000D+00  0.0000000000000D+00
226  2.2500000000000D+00  0.0000000000000D+00  0.0000000000000D+00
227  2.2600000000000D+00  0.0000000000000D+00  0.0000000000000D+00
228  2.2700000000000D+00  0.0000000000000D+00  0.0000000000000D+00
229  2.2800000000000D+00  0.0000000000000D+00  0.0000000000000D+00
230  2.2900000000000D+00  0.0000000000000D+00  0.0000000000000D+00
231  2.3000000000000D+00  0.0000000000000D+00  0.0000000000000D+00
232  2.3100000000000D+00  0.0000000000000D+00  0.0000000000000D+00
233  2.3200000000000D+00  0.0000000000000D+00  0.0000000000000D+00
234  2.3300000000000D+00  0.0000000000000D+00  0.0000000000000D+00
235  2.3400000000000D+00  0.0000000000000D+00  0.0000000000000D+00
236  2.3500000000000D+00  0.0000000000000D+00  0.0000000000000D+00
237  2.3600000000000D+00  0.0000000000000D+00  0.0000000000000D+00
238  2.3700000000000D+00  0.0000000000000D+00  0.0000000000000D+00
239  2.3800000000000D+00  0.0000000000000D+00  0.0000000000000D+00
240  2.3900000000000D+00  0.0000000000000D+00  0.0000000000000D+00
241  2.4000000000000D+00  0.0000000000000D+00  0.0000000000000D+00
242  2.4100000000000D+00  0.0000000000000D+00  0.0000000000000D+00
243  2.4200000000000D+00  0.0000000000000D+00  0.0000000000000D+00
244  2.4300000000000D+00  0.0000000000000D+00  0.0000000000000D+00
245  2.4400000000000D+00  0.0000000000000D+00  0.0000000000000D+00
246  2.4500000000000D+00  0.0000000000000D+00  0.0000000000000D+00
247  2.4600000000000D+00  0.0000000000000D+00  0.0000000000000D+00
248  2.4700000000000D+00  0.0000000000000D+00  0.0000000000000D+00
249  2.4800000000000D+00  0.0000000000000D+00  0.0000000000000D+00
250  2.4900000000000D+00  0.0000000000000D+00  0.0000000000000D+00
251  2.5000000000000D+00  0.0000000000000D+00  0.0000000000000D+00
252  2.5100000000000D+00  0.0000000000000D+00  0.0000000000000D+00
253  2.5200000000000D+00  0.0000000000000D+00  0.0000000000000D+00
254  2.5300000000000D+00  0.0000000000000D+00  0.0000000000000D+00
255  2.5400000000000D+00  0.0000000000000D+00  0.0000000000000D+00
256  2.5500000000000D+00  0.0000000000000D+00  0.0000000000000D+00
257  2.5600000000000D+00  0.0000000000000D+00  0.0000000000000D+00
258  2.5700000000000D+00  0.0000000000000D+00  0.0000000000000D+00
259  2.5800000000000D+00  0.0000000000000D+00  0.0000000000000D+00
260  2.5900000000000D+00  0.0000000000000D+00  0.0000000000000D+00
261  2.6000000000000D+00  0.0000000000000D+00  0.0000000000000D+00
262  2.6100000000000D+00  0.0000000000000D+00  0.0000000000000D+00
263  2.6200000000000D+00  0.0000000000000D+00  0.0000000000000D+00
264  2.6300000000000D+00  0.0000000000000D+00  0.0000000000000D+00
265  2.6400000000000D+00  0.0000000000000D+00  0.0000000000000D+00
266  2.6500000000000D+00  0.0000000000000D+00  0.0000000000000D+00
267  2.6600000000000D+00  0.0000000000000D+00  0.0000000000000D+00
268  2.6700000000000D+00  0.0000000000000D+00  0.0000000000000D+00
269  2.6800000000000D+00  0.0000000000000D+00  0.0000000000000D+00
270  2.6900000000000D+00  0.0000000000000D+00  0.0000000000000D+00
271  2.7000000000000D+00  0.0000000000000D+00  0.0000000000000D+00
272  2.7100000000000D+00  0.0000000000000D+00  0.0000000000000D+00
273  2.7200000000000D+00  0.0000000000000D+00  0.0000000000000D+00
274  2.7300000000000D+00  0.0000000000000D+00  0.0000000000000D+00
275  2.7400000000000D+00  0.0000000000000D+00  0.0000000000000D+00
276  2.7500000000000D+00  0.0000000000000D+00  0.0000000000000D+00
277  2.7600000000000D+00  0.0000000000000D+00  0.0000000000000D+00
278  2.7700000000000D+00  0.0000000000000D+00  0.0000000000000D+00
279  2.7800000000000D+00  0.0000000000000D+00  0.0000000000000D+00
280  2.7900000000000D+00  0.0000000000000D+00  0.0000000000000D+00
281  2.8000000000000D+00  0.0000000000000D+00  0.0000000000000D+00
282  2.8100000000000D+00  0.0000000000000D+00  0.0000000000000D+00
283  2.8200000000000D+00  0.0000000000000D+00  0.0000000000000D+00
284  2.8300000000000D+00  0.0000000000000D+00  0.0000000000000D+00
285  2.8400000000000D+00  0.0000000000000D+00  0.0000000000000D+00
286  2.8500000000000D+00  0.0000000000000D+00  0.0000000000000D+00
287  2.8600000000000D+00  0.0000000000000D+00  0.0000000000000D+00
288  2.8700000000000D+00  0.0000000000000D+00  0.0000000000000D+00
289  2.8800000000000D+00  0.0000000000000D+00  0.0000000000000D+00
290  2.8900000000000D+00  0.0000000000000D+00  0.0000000000000D+00
291  2.9000000000000D+00  0.0000000000000D+00  0.0000000000000D+00
292  2.9100000000000D+00  0.0000000000000D+00  0.0000000000000D+00
293  2.9200000000000D+00  0.0000000000000D+00  0.0000000000000D+00
294  2.9300000000000D+00  0.0000000000000D+00  0.0000000000000D+00
295  2.9400000000000D+00  0.0000000000000D+00  0.0000000000000D+00
296  2.9500000000000D+00  0.0000000000000D+00  0.0000000000000D+00
297  2.9600000000000D+00  0.0000000000000D+00  0.0000000000000D+00
298  2.9700000000000D+00  0.0000000000000D+00  0.0000000000000D+00
299  2.9800000000000D+00  0.0000000000000D+00  0.0000000000000D+00
300  2.9900000000000D+00  0.0000000000000D+00  0.0000000000000D+00
301  3.0000000000000D+00  0.0000000000000D+00  0.0000000000000D+00
302  3.0100000000000D+00  0.0000000000000D+00  0.0000000000000D+00
303  3.0200000000000D+00  0.0000000000000D+00  0.0000000000000D+00
304  3.0300000000000D+00  0.0000000000000D+00  0.0000000000000D+00
305  3.0400000000000D+00  0.0000000000000D+00  0.0000000000000D+00
306  3.0500000000000D+00  0.0000000000000D+00  0.0000000000000D+00
307  3.0600000000000D+00  0.0000000000000D+00  0.0000000000000D+00
308  3.0700000000000D+00  0.0000000000000D+00  0.0000000000000D+00
309  3.0800000000000D+00  0.0000000000000D+00  0.0000000000000D+00
310  3.0900000000000D+00  0.0000000000000D+00  0.0000000000000D+00
311  3.1000000000000D+00  0.0000000000000D+00  0.0000000000000D+00
312  3.1100000000000D+00  0.0000000000000D+00  0.0000000000000D+00
313  3.1200000000000D+00  0.0000000000000D+00  0.0000000000000D+00
314  3.1300000000000D+00  0.0000000000000D+00  0.0000000000000D+00
315  3.1400000000000D+00  0.0000000000000D+00  0.0000000000000D+00
316  3.1500000000000D+00  0.0000000000000D+00  0.0000000000000D+00
317  3.1600000000000D+00  0.0000000000000D+00  0.0000000000000D+00
318  3.1700000000000D+00  0.0000000000000D+00  0.0000000000000D+00
319  3.1800000000000D+00  0.0000000000000D+00  0.0000000000000D+00
320  3.1900000000000D+00  0.0000000000000D+00  0.0000000000000D+00
321  3.2000000000000D+00  0.0000000000000D+00  0.0000000000000D+00
322  3.2100000000000D+00  0.0000000000000D+00  0.0000000000000D+00
323  3.2200000000000D+00  0.0000000000000D+00  0.0000000000000D+00
324  3.2300000000000D+00  0.0000000000000D+00  0.0000000000000D+00
325  3.2400000000000D+00  0.0000000000000D+00  0.0000000000000D+00
326  3.2500000000000D+00  0.0000000000000D+00  0.0000000000000D+00
327  3.2600000000000D+00  0.0000000000000D+00  0.0000000000000D+00
328  3.2700000000000D+00  0.0000000000000D+00  0.0000000000000D+00
329  3.2800000000000D+00  0.0000000000000D+00  0.0000000000000D+00
330  3.2900000000000D+00  0.0000000000000D+00  0.0000000000000D+00
331  3.3000000000000D+00  0.0000000000000D+00  0.0000000000000D+00
332  3.3100000000000D+00  0.0000000000000D+00  0.0000000000000D+00
333  3.3200000000000D+00  0.0000000000000D+00  0.0000000000000D+00
334  3.3300000000000D+00  0.0000000000000D+00  0.0000000000000D+00
335  3.3400000000000D+00  0.0000000000000D+00  0.0000000000000D+00
336  3.3500000000000D+00  0.0000000000000D+00  0.0000000000000D+00
337  3.3600000000000D+00  0.0000000000000D+00  0.0000000000000D+00
338  3.3700000000000D+00  0.0000000000000D+00  0.0000000000000D+00
339  3.3800000000000D+00  0.0000000000000D+00  0.0000000000000D+00
340  3.3900000000000D+00  0.0000000000000D+00  0.0000000000000D+00
341  3.4000000000000D+00  0.0000000000000D+00  0.0000000000000D+00
342  3.4100000000000D+00  0.0000000000000D+00  0.0000000000000D+00
343  3.4200000000000D+00  0.0000000000000D+00  0.0000000000000D+00
344  3.4300000000000D+00  0.0000000000000D+00  0.0000000000000D+00
345  3.4400000000000D+00  0.0000000000000D+00  0.0000000000000D+00
346  3.4500000000000D+00  0.0000000000000D+00  0.0000000000000D+00
347  3.4600000000000D+00  0.0000000000000D+00  0.0000000000000D+00
348  3.4700000000000D+00  0.0000000000000D+00  0.0000000000000D+00
349  3.4800000000000D+00  0.0000000000000D+00  0.0000000000000D+00
350  3.4900000000000D+00  0.0000000000000D+00  0.0000000000000D+00
351  3.5000000000000D+00  0.0000000000000D+00  0.0000000000000D+00
352  3.5100000000000D+00  0.0000000000000D+00  0.0000000000000D+00
353  3.5200000000000D+00  0.0000000000000D+00  0.0000000000000D+00
354  3.5300000000000D+00  0.0000000000000D+00  0.0000000000000D+00
355  3.5400000000000D+00  0.0000000000000D+00  0.0000000000000D+00
356  3.5500000000000D+00  0.0000000000000D+00  0.0000000000000D+00
357  3.5600000000000D+00  0.0000000000000D+00  0.0000000000000D+00
358  3.5700000000000D+00  0.0000000000000D+00  0.0000000000000D+00
359  3.5800000000000D+00  0.0000000000000D+00  0.0000000000000D+00
360  3.5900000000000D+00  0.0000000000000D+00  0.0000000000000D+00
361  3.6000000000000D+00  0.0000000000000D+00  0.0000000000000D+00
362  3.6100000000000D+00  0.0000000000000D+00  0.0000000000000D+00
363  3.6200000000000D+00  0.0000000000000D+00  0.0000000000000D+00
364  3.6300000000000D+00  0.0000000000000D+00  0.0000000000000D+00
365  3.6400000000000D+00  0.0000000000000D+00  0.0000000000000D+00
366  3.6500000000000D+00  0.0000000000000D+00  0.0000000000000D+00
367  3.6600000000000D+00  0.0000000000000D+00  0.0000000000000D+00
368  3.6700000000000D+00  0.0000000000000D+00  0.0000000000000D+00
369  3.6800000000000D+00  0.0000000000000D+00  0.0000000000000D+00
370  3.6900000000000D+00  0.0000000000000D+00  0.0000000000000D+00
371  3.7000000000000D+00  0.0000000000000D+00  0.0000000000000D+00
372  3.7100000000000D+00  0.0000000000000D+00  0.0000000000000D+00
373  3.7200000000000D+00  0.0000000000000D+00  0.0000000000000D+00
374  3.7300000000000D+00  0.0000000000000D+00  0.0000000000000D+00
375  3.7400000000000D+00  0.0000000000000D+00  0.0000000000000D+00
376  3.7500000000000D+00  0.0000000000000D+00  0.0000000000000D+00
377  3.7600000000000D+00  0.0000000000000D+00  0.0000000000000D+00
378  3.7700000000000D+00  0.0000000000000D+00  0.0000000000000D+00
379  3.7800000000000D+00  0.0000000000000D+00  0.0000000000000D+00
380  3.7900000000000D+00  0.0000000000000D+00  0.0000000000000D+00
381  3.8000000000000D+00  0.0000000000000D+00  0.0000000000000D+00
382  3.8100000000000D+00  0.0000000000000D+00  0.0000000000000D+00
383  3.8200000000000D+00  0.0000000000000D+00  0.0000000000000D+00
384  3.8300000000000D+00  0.0000000000000D+00  0.0000000000000D+00
385  3.8400000000000D+00  0.0000000000000D+00  0.0000000000000D+00
386  3.8500000000000D+00  0.0000000000000D+00  0.0000000000000D+00
387  3.8600000000000D+00  0.0000000000000D+00  0.0000000000000D+00
388  3.8700000000000D+00  0.0000000000000D+00  0.0000000000000D+00
389  3.8800000000000D+00  0.0000000000000D+00  0.0000000000000D+00
390  3.8900000000000D+00  0.0000000000000D+00  0.0000000000000D+00
391  3.9000000000000D+00  0.0000000000000D+00  0.0000000000000D+00
392  3.9100000000000D+00  0.0000000000000D+00  0.0000000000000D+00
393  3.9200000000000D+00  0.0000000000000D+00  0.0000000000000D+00
394  3.9300000000000D+00  0.0000000000000D+00  0.0000000000000D+00
395  3.9400000000000D+00  0.0000000000000D+00  0.0000000000000D+00
396  3.9500000000000D+00  0.0000000000000D+00  0.0000000000000D+00
397  3.9600000000000D+00  0.0000000000000D+00  0.0000000000000D+00
398  3.9700000000000D+00  0.0000000000000D+00  0.0000000000000D+00
399  3.9800000000000D+00  0.0000000000000D+00  0.0000000000000D+00
400  3.9900000000000D+00  0.0000000000000D+00  0.0000000000000D+00
401  4.0000000000000D+00  0.0000000000000D+00  0.0000000000000D+00
402  4.0100000000000D+00  0.0000000000000D+00  0.0000000000000D+00
403  4.0200000000000D+00  0.0000000000000D+00  0.0000000000000D+00
404  4.0300000000000D+00  0.0000000000000D+00  0.0000000000000D+00
405  4.0400000000000D+00  0.0000000000000D+00  0.0000000000000D+00
406  4.0500000000000D+00  0.0000000000000D+00  0.0000000000000D+00
407  4.0600000000000D+00  0.0000000000000D+00  0.0000000000000D+00
408  4.0700000000000D+00  0.0000000000000D+00  0.0000000000000D+00
409  4.0800000000000D+00  0.0000000000000D+00  0.0000000000000D+00
410  4.0900000000000D+00  0.0000000000000D+00  0.0000000000000D+00
411  4.1000000000000D+00  0.0000000000000D+00  0.0000000000000D+00
412  4.1100000000000D+00  0.0000000000000D+00  0.0000000000000D+00
413  4.1200000000000D+00  0.0000000000000D+00  0.0000000000000D+00
414  4.1300000000000D+00  0.0000000000000D+00  0.0000000000000D+00
415  4.1400000000000D+00  0.0000000000000D+00  0.0000000000000D+00
416  4.1500000000000D+00  0.0000000000000D+00  0.0000000000000D+00
417  4.1600000000000D+00  0.0000000000000D+00  0.0000000000000D+00
418  4.1700000000000D+00  0.0000000000000D+00  0.0000000000000D+00
419  4.1800000000000D+00  0.0000000000000D+00  0.0000000000000D+00
420  4.1900000000000D+00  0.0000000000000D+00  0.0000000000000D+00
421  4.2000000000000D+00  0.0000000000000D+00  0.0000000000000D+00
422  4.2100000000000D+00  0.0000000000000D+00  0.0000000000000D+00
423  4.2200000000000D+00  0.0000000000000D+00  0.0000000000000D+00
424  4.2300000000000D+00  0.0000000000000D+00  0.0000000000000D+00
425  4.2400000000000D+00  0.0000000000000D+00  0.0000000000000D+00
426  4.2500000000000D+00  0.0000000000000D+00  0.0000000000000D+00
427  4.2600000000000D+00  0.0000000000000D+00  0.0000000000000D+00
428  4.2700000000000D+00  0.0000000000000D+00  0.0000000000000D+00
429  4.2800000000000D+00  0.0000000000000D+00  0.0000000000000D+00
430  4.2900000000000D+00  0.0000000000000D+00  0.0000000000000D+00
431  4.3000000000000D+00  0.0000000000000D+00  0.0000000000000D+00
432  4.3100000000000D+00  0.0000000000000D+00  0.0000000000000D+00
433  4.3200000000000D+00  0.0000000000000D+00  0.0000000000000D+00
434  4.3300000000000D+00  0.0000000000000D+00  0.0000000000000D+00
435  4.3400000000000D+00  0.0000000000000D+00  0.0000000000000D+00
436  4.3500000000000D+00  0.0000000000000D+00  0.0000000000000D+00
437  4.3600000000000D+00  0.0000000000000D+00  0.0000000000000D+00
438  4.3700000000000D+00  0.0000000000000D+00  0.0000000000000D+00
439  4.3800000000000D+00  0.0000000000000D+00  0.0000000000000D+00
440  4.3900000000000D+00  0.0000000000000D+00  0.0000000000000D+00
441  4.4000000000000D+00  0.0000000000000D+00  0.0000000000000D+00
442  4.4100000000000D+00  0.0000000000000D+00  0.0000000000000D+00
443  4.4200000000000D+00  0.0000000000000D+00  0.0000000000000D+00