Ar    ONCVPSP-3.3.0  r_core=   1.56397   1.56397   1.56397
18.0000      8.0000      180503    zatom,zion,pspd
8 -116133   2     4   400     0    pspcod,pspxc,lmax,lloc,mmax,r2well
3.99000000  7.00000000  0.00000000    rchrg fchrg qchrg
2     3     2     0    nproj
3     1           extension_switch
3     3     0    nprojso
0                         4.4257275318916D-01  8.5681432192008D+00
1  0.0000000000000D+00  2.5452323582087D-10 -4.5402848147802D-11
2  1.0000000000000D-02 -3.7868277838731D-02  6.3522669830120D-02
3  2.0000000000000D-02 -7.5574455749717D-02  1.2692866036834D-01
4  3.0000000000000D-02 -1.1295720049799D-01  1.9010161001056D-01
5  4.0000000000000D-02 -1.4985670627518D-01  2.5292579111106D-01
6  5.0000000000000D-02 -1.8611544358091D-01  3.1528642343036D-01
7  6.0000000000000D-02 -2.2157889048886D-01  3.7706998337809D-01
8  7.0000000000000D-02 -2.5609624072779D-01  4.3816450770295D-01
9  8.0000000000000D-02 -2.8952108326260D-01  4.9845989032743D-01
10  9.0000000000000D-02 -3.2171204837215D-01  5.5784817108043D-01
11  1.0000000000000D-01 -3.5253341558671D-01  6.1622381514665D-01
12  1.1000000000000D-01 -3.8185567926332D-01  6.7348398212563D-01
13  1.2000000000000D-01 -4.0955606803661D-01  7.2952878367620D-01
14  1.3000000000000D-01 -4.3551901488176D-01  7.8426152881152D-01
15  1.4000000000000D-01 -4.5963657505619D-01  8.3758895600581D-01
16  1.5000000000000D-01 -4.8180878974478D-01  8.8942145137467D-01
17  1.6000000000000D-01 -5.0194399380896D-01  9.3967325229580D-01
18  1.7000000000000D-01 -5.1995906662914D-01  9.8826263594425D-01
19  1.8000000000000D-01 -5.3577962562365D-01  1.0351120923256D+00
20  1.9000000000000D-01 -5.4934016261873D-01  1.0801484814999D+00
21  2.0000000000000D-01 -5.6058412382670D-01  1.1233031747969D+00
22  2.1000000000000D-01 -5.6946393475490D-01  1.1645121799317D+00
23  2.2000000000000D-01 -5.7594097191063D-01  1.2037162500297D+00
24  2.3000000000000D-01 -5.7998548367992D-01  1.2408609766725D+00
25  2.4000000000000D-01 -5.8157646323410D-01  1.2758968671670D+00
26  2.5000000000000D-01 -5.8070147675345D-01  1.3087794063290D+00
27  2.6000000000000D-01 -5.7735645064399D-01  1.3394691031522D+00
28  2.7000000000000D-01 -5.7154542176028D-01  1.3679315228055D+00
29  2.8000000000000D-01 -5.6328025492683D-01  1.3941373044655D+00
30  2.9000000000000D-01 -5.5258033227292D-01  1.4180621655454D+00
31  3.0000000000000D-01 -5.3947221905552D-01  1.4396868929279D+00
32  3.1000000000000D-01 -5.2398931074263D-01  1.4589973218420D+00
33  3.2000000000000D-01 -5.0617146616244D-01  1.4759843030520D+00
34  3.3000000000000D-01 -4.8606463149370D-01  1.4906436590411D+00
35  3.4000000000000D-01 -4.6372045977842D-01  1.5029761298768D+00
36  3.5000000000000D-01 -4.3919593048312D-01  1.5129873094430D+00
37  3.6000000000000D-01 -4.1255297342016D-01  1.5206875727090D+00
38  3.7000000000000D-01 -3.8385810106972D-01  1.5260919946839D+00
39  3.8000000000000D-01 -3.5318205302065D-01  1.5292202616767D+00
40  3.9000000000000D-01 -3.2059945587768D-01  1.5300965754429D+00
41  4.0000000000000D-01 -2.8618850156939D-01  1.5287495507559D+00
42  4.1000000000000D-01 -2.5003064654239D-01  1.5252121068930D+00
43  4.2000000000000D-01 -2.1221033384700D-01  1.5195213534713D+00
44  4.3000000000000D-01 -1.7281473961650D-01  1.5117184710118D+00
45  4.4000000000000D-01 -1.3193354492231D-01  1.5018485865511D+00
46  4.5000000000000D-01 -8.9658733457459D-02  1.4899606445602D+00
47  4.6000000000000D-01 -4.6084414971619D-02  1.4761072733675D+00
48  4.7000000000000D-01 -1.3066738532253D-03  1.4603446472270D+00
49  4.8000000000000D-01  4.4576558255199D-02  1.4427323441120D+00
50  4.9000000000000D-01  9.1465607416087D-02  1.4233331992654D+00
51  5.0000000000000D-01  1.3925914199961D-01  1.4022131544860D+00
52  5.1000000000000D-01  1.8785423943037D-01  1.3794411030868D+00
53  5.2000000000000D-01  2.3714643796600D-01  1.3550887304287D+00
54  5.3000000000000D-01  2.8702977673737D-01  1.3292303498971D+00
55  5.4000000000000D-01  3.3739682757001D-01  1.3019427341749D+00
56  5.5000000000000D-01  3.8813872233984D-01  1.2733049416463D+00
57  5.6000000000000D-01  4.3914517978820D-01  1.2433981377689D+00
58  5.7000000000000D-01  4.9030453583139D-01  1.2123054112517D+00
59  5.8000000000000D-01  5.4150378144128D-01  1.1801115848981D+00
60  5.9000000000000D-01  5.9262861215147D-01  1.1469030209955D+00
61  6.0000000000000D-01  6.4356349314920D-01  1.1127674211712D+00
62  6.1000000000000D-01  6.9419174375513D-01  1.0777936206772D+00
63  6.2000000000000D-01  7.4439564486732D-01  1.0420713771234D+00
64  6.3000000000000D-01  7.9405657265397D-01  1.0056911537407D+00
65  6.4000000000000D-01  8.4305516143302D-01  9.6874389732496D-01
66  6.5000000000000D-01  8.9127149826465D-01  9.3132081109480D-01
67  6.6000000000000D-01  9.3858535132713D-01  8.9351312277516D-01
68  6.7000000000000D-01  9.8487643363896D-01  8.5541184831237D-01
69  6.8000000000000D-01  1.0300247031446D+00  8.1710755171649D-01
70  6.9000000000000D-01  1.0739106996010D+00  7.7869010162389D-01
71  7.0000000000000D-01  1.1164159181002D+00  7.4024842526903D-01
72  7.1000000000000D-01  1.1574232184365D+00  7.0187026065136D-01
73  7.2000000000000D-01  1.1968172688976D+00  6.6364190777825D-01
74  7.3000000000000D-01  1.2344850224249D+00  6.2564797995649D-01
75  7.4000000000000D-01  1.2703162224607D+00  5.8797115619211D-01
76  7.5000000000000D-01  1.3042039351970D+00  5.5069193583932D-01
77  7.6000000000000D-01  1.3360451043497D+00  5.1388839671265D-01
78  7.7000000000000D-01  1.3657411240387D+00  4.7763595794121D-01
79  7.8000000000000D-01  1.3931984248413D+00  4.4200714889783D-01
80  7.9000000000000D-01  1.4183290676340D+00  4.0707138557879D-01
81  8.0000000000000D-01  1.4410513394327D+00  3.7289475583976D-01
82  8.1000000000000D-01  1.4612903451062D+00  3.3953981491050D-01
83  8.2000000000000D-01  1.4789785885730D+00  3.0706539261235D-01
84  8.3000000000000D-01  1.4940565368955D+00  2.7552641369030D-01
85  8.4000000000000D-01  1.5064731605780D+00  2.4497373264208D-01
86  8.5000000000000D-01  1.5161864433420D+00  2.1545398438286D-01
87  8.6000000000000D-01  1.5231638547094D+00  1.8700945202304D-01
88  8.7000000000000D-01  1.5273827788669D+00  1.5967795296048D-01
89  8.8000000000000D-01  1.5288308935121D+00  1.3349274439582D-01
90  8.9000000000000D-01  1.5275064926986D+00  1.0848244927238D-01
91  9.0000000000000D-01  1.5234187480944D+00  8.4671003519650D-02
92  9.1000000000000D-01  1.5165879035483D+00  6.2077625343846D-02
93  9.2000000000000D-01  1.5070453984154D+00  4.0716807160282D-02
94  9.3000000000000D-01  1.4948339157193D+00  2.0598330602548D-02
95  9.4000000000000D-01  1.4800073519227D+00  1.7273048735435D-03
96  9.5000000000000D-01  1.4626307058284D+00 -1.5895771474760D-02
97  9.6000000000000D-01  1.4427798849334D+00 -3.2274925431076D-02
98  9.7000000000000D-01  1.4205414284020D+00 -4.7418601371776D-02
99  9.8000000000000D-01  1.3960121466979D+00 -6.1339530346279D-02
100  9.9000000000000D-01  1.3692986788145D+00 -7.4054577475206D-02
101  1.0000000000000D+00  1.3405169689330D+00 -8.5584568325355D-02
102  1.0100000000000D+00  1.3097916652738D+00 -9.5954095319736D-02
103  1.0200000000000D+00  1.2772554447809D+00 -1.0519130541957D-01
104  1.0300000000000D+00  1.2430482681622D+00 -1.1332767049253D-01
105  1.0400000000000D+00  1.2073165706496D+00 -1.2039774194674D-01
106  1.0500000000000D+00  1.1702123946586D+00 -1.2643889136758D-01
107  1.0600000000000D+00  1.1318924712159D+00 -1.3149103902322D-01
108  1.0700000000000D+00  1.0925172577849D+00 -1.3559637224581D-01
109  1.0800000000000D+00  1.0522499406635D+00 -1.3879905578933D-01
110  1.0900000000000D+00  1.0112554106805D+00 -1.4114493635942D-01
111  1.1000000000000D+00  9.6969922134138D-01 -1.4268124357563D-01
112  1.1100000000000D+00  9.2774653889975D-01 -1.4345628967384D-01
113  1.1200000000000D+00  8.8556109410277D-01 -1.4351917028410D-01
114  1.1300000000000D+00  8.4330414545023D-01 -1.4291946861749D-01
115  1.1400000000000D+00  8.0113346380206D-01 -1.4170696536457D-01
116  1.1500000000000D+00  7.5920234814234D-01 -1.3993135658503D-01
117  1.1600000000000D+00  7.1765868202652D-01 -1.3764198177471D-01
118  1.1700000000000D+00  6.7664403993875D-01 -1.3488756421531D-01
119  1.1800000000000D+00  6.3629285227066D-01 -1.3171596557726D-01
120  1.1900000000000D+00  5.9673163730286D-01 -1.2817395665991D-01
121  1.2000000000000D+00  5.5807830765028D-01 -1.2430700593088D-01
122  1.2100000000000D+00  5.2044155791517D-01 -1.2015908736003D-01
123  1.2200000000000D+00  4.8392033970566D-01 -1.1577250890597D-01
124  1.2300000000000D+00  4.4860342899811D-01 -1.1118776274184D-01
125  1.2400000000000D+00  4.1456908972795D-01 -1.0644339806452D-01
126  1.2500000000000D+00  3.8188483668844D-01 -1.0157591715167D-01
127  1.2600000000000D+00  3.5060729975512D-01 -9.6619695094275D-02
128  1.2700000000000D+00  3.2078218971903D-01 -9.1606923255393D-02
129  1.2800000000000D+00  2.9244436537566D-01 -8.6567576368662D-02
130  1.2900000000000D+00  2.6561800047166D-01 -8.1529402961670D-02
131  1.3000000000000D+00  2.4031684691703D-01 -7.6517938320991D-02
132  1.3100000000000D+00  2.1654459051560D-01 -7.1556539183857D-02
133  1.3200000000000D+00  1.9429529411458D-01 -6.6666439051198D-02
134  1.3300000000000D+00  1.7355392093747D-01 -6.1866822568757D-02
135  1.3400000000000D+00  1.5429693133858D-01 -5.7174917522345D-02
136  1.3500000000000D+00  1.3649294414609D-01 -5.2606102557231D-02
137  1.3600000000000D+00  1.2010345252551D-01 -4.8174028478378D-02
138  1.3700000000000D+00  1.0508358505864D-01 -4.3890751143994D-02
139  1.3800000000000D+00  9.1382899869736D-02 -3.9766873373074D-02
140  1.3900000000000D+00  7.8946200467650D-02 -3.5811693464001D-02
141  1.4000000000000D+00  6.7714361117261D-02 -3.2033357740784D-02
142  1.4100000000000D+00  5.7625148498049D-02 -2.8439014335731D-02
143  1.4200000000000D+00  4.8614027184344D-02 -2.5034965571193D-02
144  1.4300000000000D+00  4.0614935226073D-02 -2.1826816053041D-02
145  1.4400000000000D+00  3.3561017271549D-02 -1.8819613831349D-02
146  1.4500000000000D+00  2.7385301291649D-02 -1.6017981693575D-02
147  1.4600000000000D+00  2.2021299905504D-02 -1.3426235245358D-02
148  1.4700000000000D+00  1.7403566699973D-02 -1.1048490330275D-02
149  1.4800000000000D+00  1.3468024132995D-02 -8.8887359438909D-03
150  1.4900000000000D+00  1.0152629797571D-02 -6.9509435570276D-03
151  1.5000000000000D+00  7.3973477655481D-03 -5.2390786041421D-03
152  1.5100000000000D+00  5.1431417353530D-03 -3.7571231902765D-03
153  1.5200000000000D+00  3.3361478567834D-03 -2.5097350284443D-03
154  1.5300000000000D+00  1.9258955487298D-03 -1.4972032759362D-03
155  1.5400000000000D+00  8.8413047336220D-04 -7.3049584314667D-04
156  1.5500000000000D+00  2.0645467926561D-04 -2.3444423236418D-04
157  1.5600000000000D+00 -1.2413517758623D-04  6.2864837944167D-06
158  1.5700000000000D+00 -1.5199708549411D-04  5.5241266665186D-05
159  1.5800000000000D+00 -3.2028455705505D-05  1.3272776820577D-05
160  1.5900000000000D+00  2.7852697375281D-05 -1.2029489778764D-05
161  1.6000000000000D+00  6.5224940929270D-06 -2.8965276208807D-06
162  1.6100000000000D+00 -5.8433236302565D-06  2.3904338988458D-06
163  1.6200000000000D+00 -8.2176942320880D-07  3.4109561053711D-07
164  1.6300000000000D+00  4.8032985916012D-07 -1.2676916224884D-07
165  1.6400000000000D+00  2.9140176517466D-08 -7.6907060730341D-09
166  1.6500000000000D+00  0.0000000000000D+00  0.0000000000000D+00
167  1.6600000000000D+00  0.0000000000000D+00  0.0000000000000D+00
168  1.6700000000000D+00  0.0000000000000D+00  0.0000000000000D+00
169  1.6800000000000D+00  0.0000000000000D+00  0.0000000000000D+00
170  1.6900000000000D+00  0.0000000000000D+00  0.0000000000000D+00
171  1.7000000000000D+00  0.0000000000000D+00  0.0000000000000D+00
172  1.7100000000000D+00  0.0000000000000D+00  0.0000000000000D+00
173  1.7200000000000D+00  0.0000000000000D+00  0.0000000000000D+00
174  1.7300000000000D+00  0.0000000000000D+00  0.0000000000000D+00
175  1.7400000000000D+00  0.0000000000000D+00  0.0000000000000D+00
176  1.7500000000000D+00  0.0000000000000D+00  0.0000000000000D+00
177  1.7600000000000D+00  0.0000000000000D+00  0.0000000000000D+00
178  1.7700000000000D+00  0.0000000000000D+00  0.0000000000000D+00
179  1.7800000000000D+00  0.0000000000000D+00  0.0000000000000D+00
180  1.7900000000000D+00  0.0000000000000D+00  0.0000000000000D+00
181  1.8000000000000D+00  0.0000000000000D+00  0.0000000000000D+00
182  1.8100000000000D+00  0.0000000000000D+00  0.0000000000000D+00
183  1.8200000000000D+00  0.0000000000000D+00  0.0000000000000D+00
184  1.8300000000000D+00  0.0000000000000D+00  0.0000000000000D+00
185  1.8400000000000D+00  0.0000000000000D+00  0.0000000000000D+00
186  1.8500000000000D+00  0.0000000000000D+00  0.0000000000000D+00
187  1.8600000000000D+00  0.0000000000000D+00  0.0000000000000D+00
188  1.8700000000000D+00  0.0000000000000D+00  0.0000000000000D+00
189  1.8800000000000D+00  0.0000000000000D+00  0.0000000000000D+00
190  1.8900000000000D+00  0.0000000000000D+00  0.0000000000000D+00
191  1.9000000000000D+00  0.0000000000000D+00  0.0000000000000D+00
192  1.9100000000000D+00  0.0000000000000D+00  0.0000000000000D+00
193  1.9200000000000D+00  0.0000000000000D+00  0.0000000000000D+00
194  1.9300000000000D+00  0.0000000000000D+00  0.0000000000000D+00
195  1.9400000000000D+00  0.0000000000000D+00  0.0000000000000D+00
196  1.9500000000000D+00  0.0000000000000D+00  0.0000000000000D+00
197  1.9600000000000D+00  0.0000000000000D+00  0.0000000000000D+00
198  1.9700000000000D+00  0.0000000000000D+00  0.0000000000000D+00
199  1.9800000000000D+00  0.0000000000000D+00  0.0000000000000D+00
200  1.9900000000000D+00  0.0000000000000D+00  0.0000000000000D+00
201  2.0000000000000D+00  0.0000000000000D+00  0.0000000000000D+00
202  2.0100000000000D+00  0.0000000000000D+00  0.0000000000000D+00
203  2.0200000000000D+00  0.0000000000000D+00  0.0000000000000D+00
204  2.0300000000000D+00  0.0000000000000D+00  0.0000000000000D+00
205  2.0400000000000D+00  0.0000000000000D+00  0.0000000000000D+00
206  2.0500000000000D+00  0.0000000000000D+00  0.0000000000000D+00
207  2.0600000000000D+00  0.0000000000000D+00  0.0000000000000D+00
208  2.0700000000000D+00  0.0000000000000D+00  0.0000000000000D+00
209  2.0800000000000D+00  0.0000000000000D+00  0.0000000000000D+00
210  2.0900000000000D+00  0.0000000000000D+00  0.0000000000000D+00
211  2.1000000000000D+00  0.0000000000000D+00  0.0000000000000D+00
212  2.1100000000000D+00  0.0000000000000D+00  0.0000000000000D+00
213  2.1200000000000D+00  0.0000000000000D+00  0.0000000000000D+00
214  2.1300000000000D+00  0.0000000000000D+00  0.0000000000000D+00
215  2.1400000000000D+00  0.0000000000000D+00  0.0000000000000D+00
216  2.1500000000000D+00  0.0000000000000D+00  0.0000000000000D+00
217  2.1600000000000D+00  0.0000000000000D+00  0.0000000000000D+00
218  2.1700000000000D+00  0.0000000000000D+00  0.0000000000000D+00
219  2.1800000000000D+00  0.0000000000000D+00  0.0000000000000D+00
220  2.1900000000000D+00  0.0000000000000D+00  0.0000000000000D+00
221  2.2000000000000D+00  0.0000000000000D+00  0.0000000000000D+00
222  2.2100000000000D+00  0.0000000000000D+00  0.0000000000000D+00
223  2.2200000000000D+00  0.0000000000000D+00  0.0000000000000D+00
224  2.2300000000000D+00  0.0000000000000D+00  0.0000000000000D+00
225  2.2400000000000D+00  0.0000000000000D+00  0.0000000000000D+00
226  2.2500000000000D+00  0.0000000000000D+00  0.0000000000000D+00
227  2.2600000000000D+00  0.0000000000000D+00  0.0000000000000D+00
228  2.2700000000000D+00  0.0000000000000D+00  0.0000000000000D+00
229  2.2800000000000D+00  0.0000000000000D+00  0.0000000000000D+00
230  2.2900000000000D+00  0.0000000000000D+00  0.0000000000000D+00
231  2.3000000000000D+00  0.0000000000000D+00  0.0000000000000D+00
232  2.3100000000000D+00  0.0000000000000D+00  0.0000000000000D+00
233  2.3200000000000D+00  0.0000000000000D+00  0.0000000000000D+00
234  2.3300000000000D+00  0.0000000000000D+00  0.0000000000000D+00
235  2.3400000000000D+00  0.0000000000000D+00  0.0000000000000D+00
236  2.3500000000000D+00  0.0000000000000D+00  0.0000000000000D+00
237  2.3600000000000D+00  0.0000000000000D+00  0.0000000000000D+00
238  2.3700000000000D+00  0.0000000000000D+00  0.0000000000000D+00
239  2.3800000000000D+00  0.0000000000000D+00  0.0000000000000D+00
240  2.3900000000000D+00  0.0000000000000D+00  0.0000000000000D+00
241  2.4000000000000D+00  0.0000000000000D+00  0.0000000000000D+00
242  2.4100000000000D+00  0.0000000000000D+00  0.0000000000000D+00
243  2.4200000000000D+00  0.0000000000000D+00  0.0000000000000D+00
244  2.4300000000000D+00  0.0000000000000D+00  0.0000000000000D+00
245  2.4400000000000D+00  0.0000000000000D+00  0.0000000000000D+00
246  2.4500000000000D+00  0.0000000000000D+00  0.0000000000000D+00
247  2.4600000000000D+00  0.0000000000000D+00  0.0000000000000D+00
248  2.4700000000000D+00  0.0000000000000D+00  0.0000000000000D+00
249  2.4800000000000D+00  0.0000000000000D+00  0.0000000000000D+00
250  2.4900000000000D+00  0.0000000000000D+00  0.0000000000000D+00
251  2.5000000000000D+00  0.0000000000000D+00  0.0000000000000D+00
252  2.5100000000000D+00  0.0000000000000D+00  0.0000000000000D+00
253  2.5200000000000D+00  0.0000000000000D+00  0.0000000000000D+00
254  2.5300000000000D+00  0.0000000000000D+00  0.0000000000000D+00
255  2.5400000000000D+00  0.0000000000000D+00  0.0000000000000D+00
256  2.5500000000000D+00  0.0000000000000D+00  0.0000000000000D+00
257  2.5600000000000D+00  0.0000000000000D+00  0.0000000000000D+00
258  2.5700000000000D+00  0.0000000000000D+00  0.0000000000000D+00
259  2.5800000000000D+00  0.0000000000000D+00  0.0000000000000D+00
260  2.5900000000000D+00  0.0000000000000D+00  0.0000000000000D+00
261  2.6000000000000D+00  0.0000000000000D+00  0.0000000000000D+00
262  2.6100000000000D+00  0.0000000000000D+00  0.0000000000000D+00
263  2.6200000000000D+00  0.0000000000000D+00  0.0000000000000D+00
264  2.6300000000000D+00  0.0000000000000D+00  0.0000000000000D+00
265  2.6400000000000D+00  0.0000000000000D+00  0.0000000000000D+00
266  2.6500000000000D+00  0.0000000000000D+00  0.0000000000000D+00
267  2.6600000000000D+00  0.0000000000000D+00  0.0000000000000D+00
268  2.6700000000000D+00  0.0000000000000D+00  0.0000000000000D+00
269  2.6800000000000D+00  0.0000000000000D+00  0.0000000000000D+00
270  2.6900000000000D+00  0.0000000000000D+00  0.0000000000000D+00
271  2.7000000000000D+00  0.0000000000000D+00  0.0000000000000D+00
272  2.7100000000000D+00  0.0000000000000D+00  0.0000000000000D+00
273  2.7200000000000D+00  0.0000000000000D+00  0.0000000000000D+00
274  2.7300000000000D+00  0.0000000000000D+00  0.0000000000000D+00
275  2.7400000000000D+00  0.0000000000000D+00  0.0000000000000D+00
276  2.7500000000000D+00  0.0000000000000D+00  0.0000000000000D+00
277  2.7600000000000D+00  0.0000000000000D+00  0.0000000000000D+00
278  2.7700000000000D+00  0.0000000000000D+00  0.0000000000000D+00
279  2.7800000000000D+00  0.0000000000000D+00  0.0000000000000D+00
280  2.7900000000000D+00  0.0000000000000D+00  0.0000000000000D+00
281  2.8000000000000D+00  0.0000000000000D+00  0.0000000000000D+00
282  2.8100000000000D+00  0.0000000000000D+00  0.0000000000000D+00
283  2.8200000000000D+00  0.0000000000000D+00  0.0000000000000D+00
284  2.8300000000000D+00  0.0000000000000D+00  0.0000000000000D+00
285  2.8400000000000D+00  0.0000000000000D+00  0.0000000000000D+00
286  2.8500000000000D+00  0.0000000000000D+00  0.0000000000000D+00
287  2.8600000000000D+00  0.0000000000000D+00  0.0000000000000D+00
288  2.8700000000000D+00  0.0000000000000D+00  0.0000000000000D+00
289  2.8800000000000D+00  0.0000000000000D+00  0.0000000000000D+00
290  2.8900000000000D+00  0.0000000000000D+00  0.0000000000000D+00
291  2.9000000000000D+00  0.0000000000000D+00  0.0000000000000D+00
292  2.9100000000000D+00  0.0000000000000D+00  0.0000000000000D+00
293  2.9200000000000D+00  0.0000000000000D+00  0.0000000000000D+00
294  2.9300000000000D+00  0.0000000000000D+00  0.0000000000000D+00
295  2.9400000000000D+00  0.0000000000000D+00  0.0000000000000D+00
296  2.9500000000000D+00  0.0000000000000D+00  0.0000000000000D+00
297  2.9600000000000D+00  0.0000000000000D+00  0.0000000000000D+00
298  2.9700000000000D+00  0.0000000000000D+00  0.0000000000000D+00
299  2.9800000000000D+00  0.0000000000000D+00  0.0000000000000D+00
300  2.9900000000000D+00  0.0000000000000D+00  0.0000000000000D+00
301  3.0000000000000D+00  0.0000000000000D+00  0.0000000000000D+00
302  3.0100000000000D+00  0.0000000000000D+00  0.0000000000000D+00
303  3.0200000000000D+00  0.0000000000000D+00  0.0000000000000D+00
304  3.0300000000000D+00  0.0000000000000D+00  0.0000000000000D+00
305  3.0400000000000D+00  0.0000000000000D+00  0.0000000000000D+00
306  3.0500000000000D+00  0.0000000000000D+00  0.0000000000000D+00
307  3.0600000000000D+00  0.0000000000000D+00  0.0000000000000D+00
308  3.0700000000000D+00  0.0000000000000D+00  0.0000000000000D+00
309  3.0800000000000D+00  0.0000000000000D+00  0.0000000000000D+00
310  3.0900000000000D+00  0.0000000000000D+00  0.0000000000000D+00
311  3.1000000000000D+00  0.0000000000000D+00  0.0000000000000D+00
312  3.1100000000000D+00  0.0000000000000D+00  0.0000000000000D+00
313  3.1200000000000D+00  0.0000000000000D+00  0.0000000000000D+00
314  3.1300000000000D+00  0.0000000000000D+00  0.0000000000000D+00
315  3.1400000000000D+00  0.0000000000000D+00  0.0000000000000D+00
316  3.1500000000000D+00  0.0000000000000D+00  0.0000000000000D+00
317  3.1600000000000D+00  0.0000000000000D+00  0.0000000000000D+00
318  3.1700000000000D+00  0.0000000000000D+00  0.0000000000000D+00
319  3.1800000000000D+00  0.0000000000000D+00  0.0000000000000D+00
320  3.1900000000000D+00  0.0000000000000D+00  0.0000000000000D+00
321  3.2000000000000D+00  0.0000000000000D+00  0.0000000000000D+00
322  3.2100000000000D+00  0.0000000000000D+00  0.0000000000000D+00
323  3.2200000000000D+00  0.0000000000000D+00  0.0000000000000D+00
324  3.2300000000000D+00  0.0000000000000D+00  0.0000000000000D+00
325  3.2400000000000D+00  0.0000000000000D+00  0.0000000000000D+00
326  3.2500000000000D+00  0.0000000000000D+00  0.0000000000000D+00
327  3.2600000000000D+00  0.0000000000000D+00  0.0000000000000D+00
328  3.2700000000000D+00  0.0000000000000D+00  0.0000000000000D+00
329  3.2800000000000D+00  0.0000000000000D+00  0.0000000000000D+00
330  3.2900000000000D+00  0.0000000000000D+00  0.0000000000000D+00
331  3.3000000000000D+00  0.0000000000000D+00  0.0000000000000D+00
332  3.3100000000000D+00  0.0000000000000D+00  0.0000000000000D+00
333  3.3200000000000D+00  0.0000000000000D+00  0.0000000000000D+00
334  3.3300000000000D+00  0.0000000000000D+00  0.0000000000000D+00
335  3.3400000000000D+00  0.0000000000000D+00  0.0000000000000D+00
336  3.3500000000000D+00  0.0000000000000D+00  0.0000000000000D+00
337  3.3600000000000D+00  0.0000000000000D+00  0.0000000000000D+00
338  3.3700000000000D+00  0.0000000000000D+00  0.0000000000000D+00
339  3.3800000000000D+00  0.0000000000000D+00  0.0000000000000D+00
340  3.3900000000000D+00  0.0000000000000D+00  0.0000000000000D+00
341  3.4000000000000D+00  0.0000000000000D+00  0.0000000000000D+00
342  3.4100000000000D+00  0.0000000000000D+00  0.0000000000000D+00
343  3.4200000000000D+00  0.0000000000000D+00  0.0000000000000D+00
344  3.4300000000000D+00  0.0000000000000D+00  0.0000000000000D+00
345  3.4400000000000D+00  0.0000000000000D+00  0.0000000000000D+00
346  3.4500000000000D+00  0.0000000000000D+00  0.0000000000000D+00
347  3.4600000000000D+00  0.0000000000000D+00  0.0000000000000D+00
348  3.4700000000000D+00  0.0000000000000D+00  0.0000000000000D+00
349  3.4800000000000D+00  0.0000000000000D+00  0.0000000000000D+00
350  3.4900000000000D+00  0.0000000000000D+00  0.0000000000000D+00
351  3.5000000000000D+00  0.0000000000000D+00  0.0000000000000D+00
352  3.5100000000000D+00  0.0000000000000D+00  0.0000000000000D+00
353  3.5200000000000D+00  0.0000000000000D+00  0.0000000000000D+00
354  3.5300000000000D+00  0.0000000000000D+00  0.0000000000000D+00
355  3.5400000000000D+00  0.0000000000000D+00  0.0000000000000D+00
356  3.5500000000000D+00  0.0000000000000D+00  0.0000000000000D+00
357  3.5600000000000D+00  0.0000000000000D+00  0.0000000000000D+00
358  3.5700000000000D+00  0.0000000000000D+00  0.0000000000000D+00
359  3.5800000000000D+00  0.0000000000000D+00  0.0000000000000D+00
360  3.5900000000000D+00  0.0000000000000D+00  0.0000000000000D+00
361  3.6000000000000D+00  0.0000000000000D+00  0.0000000000000D+00
362  3.6100000000000D+00  0.0000000000000D+00  0.0000000000000D+00
363  3.6200000000000D+00  0.0000000000000D+00  0.0000000000000D+00
364  3.6300000000000D+00  0.0000000000000D+00  0.0000000000000D+00
365  3.6400000000000D+00  0.0000000000000D+00  0.0000000000000D+00
366  3.6500000000000D+00  0.0000000000000D+00  0.0000000000000D+00
367  3.6600000000000D+00  0.0000000000000D+00  0.0000000000000D+00
368  3.6700000000000D+00  0.0000000000000D+00  0.0000000000000D+00
369  3.6800000000000D+00  0.0000000000000D+00  0.0000000000000D+00
370  3.6900000000000D+00  0.0000000000000D+00  0.0000000000000D+00
371  3.7000000000000D+00  0.0000000000000D+00  0.0000000000000D+00
372  3.7100000000000D+00  0.0000000000000D+00  0.0000000000000D+00
373  3.7200000000000D+00  0.0000000000000D+00  0.0000000000000D+00
374  3.7300000000000D+00  0.0000000000000D+00  0.0000000000000D+00
375  3.7400000000000D+00  0.0000000000000D+00  0.0000000000000D+00
376  3.7500000000000D+00  0.0000000000000D+00  0.0000000000000D+00
377  3.7600000000000D+00  0.0000000000000D+00  0.0000000000000D+00
378  3.7700000000000D+00  0.0000000000000D+00  0.0000000000000D+00
379  3.7800000000000D+00  0.0000000000000D+00  0.0000000000000D+00
380  3.7900000000000D+00  0.0000000000000D+00  0.0000000000000D+00
381  3.8000000000000D+00  0.0000000000000D+00  0.0000000000000D+00
382  3.8100000000000D+00  0.0000000000000D+00  0.0000000000000D+00
383  3.8200000000000D+00  0.0000000000000D+00  0.0000000000000D+00
384  3.8300000000000D+00  0.0000000000000D+00  0.0000000000000D+00
385  3.8400000000000D+00  0.0000000000000D+00  0.0000000000000D+00
386  3.8500000000000D+00  0.0000000000000D+00  0.0000000000000D+00
387  3.8600000000000D+00  0.0000000000000D+00  0.0000000000000D+00
388  3.8700000000000D+00  0.0000000000000D+00  0.0000000000000D+00
389  3.8800000000000D+00  0.0000000000000D+00  0.0000000000000D+00
390  3.8900000000000D+00  0.0000000000000D+00  0.0000000000000D+00
391  3.9000000000000D+00  0.0000000000000D+00  0.0000000000000D+00
392  3.9100000000000D+00  0.0000000000000D+00  0.0000000000000D+00
393  3.9200000000000D+00  0.0000000000000D+00  0.0000000000000D+00
394  3.9300000000000D+00  0.0000000000000D+00  0.0000000000000D+00
395  3.9400000000000D+00  0.0000000000000D+00  0.0000000000000D+00
396  3.9500000000000D+00  0.0000000000000D+00  0.0000000000000D+00
397  3.9600000000000D+00  0.0000000000000D+00  0.0000000000000D+00
398  3.9700000000000D+00  0.0000000000000D+00  0.0000000000000D+00
399  3.9800000000000D+00  0.0000000000000D+00  0.0000000000000D+00
400  3.9900000000000D+00  0.0000000000000D+00  0.0000000000000D+00
1                         2.3677482927165D+00  2.3082747689856D-01  4.3833721770424D-05
1  0.0000000000000D+00  3.3964620005378D-10 -1.3373165144714D-09  1.0294127356092D-08
2  1.0000000000000D-02  1.3911774979026D-03 -8.5191470000782D-04  2.2641999066587D-03
3  2.0000000000000D-02  5.5594447363292D-03 -3.4008514106280D-03  9.0280467251504D-03
4  3.0000000000000D-02  1.2489030875210D-02 -7.6264493444174D-03  2.0205678475507D-02
5  4.0000000000000D-02  2.2153734080346D-02 -1.3494977706050D-02  3.5655308471647D-02
6  5.0000000000000D-02  3.4517045220800D-02 -2.0959638845495D-02  5.5181179968482D-02
7  6.0000000000000D-02  4.9532319750038D-02 -2.9960987465759D-02  7.8536262391753D-02
8  7.0000000000000D-02  6.7142996493570D-02 -4.0427460767606D-02  1.0542564962547D-01
9  8.0000000000000D-02  8.7282861726153D-02 -5.2276013076328D-02  1.3551061053777D-01
10  9.0000000000000D-02  1.0987635660047D-01 -6.5412847250171D-02  1.6841323236071D-01
11  1.0000000000000D-01  1.3483892569025D-01 -7.9734234033952D-02  2.0372158891245D-01
12  1.1000000000000D-01  1.6207740413687D-01 -9.5127409509398D-02  2.4099535798478D-01
13  1.2000000000000D-01  1.9149044064336D-01 -1.1147153992157D-01  2.7977180570429D-01
14  1.3000000000000D-01  2.2296895334454D-01 -1.2863874243922D-01  3.1957205036709D-01
15  1.4000000000000D-01  2.5639661540083D-01 -1.4649514984693D-01  3.5990751426692D-01
16  1.5000000000000D-01  2.9165036701567D-01 -1.6490200677491D-01  4.0028646939283D-01
17  1.6000000000000D-01  3.2860095046481D-01 -1.8371678485399D-01  4.4022058165006D-01
18  1.7000000000000D-01  3.6711346465124D-01 -2.0279430414149D-01  4.7923135844715D-01
19  1.8000000000000D-01  4.0704793565997D-01 -2.2198784829708D-01  5.1685640610965D-01
20  1.9000000000000D-01  4.4825989978559D-01 -2.4115026129437D-01  5.5265540660058D-01
21  2.0000000000000D-01  4.9060099553768D-01 -2.6013501392931D-01  5.8621572738587D-01
22  2.1000000000000D-01  5.3391956119736D-01 -2.7879722902114D-01  6.1715758393015D-01
23  2.2000000000000D-01  5.7806123459709D-01 -2.9699465498668D-01  6.4513868121176D-01
24  2.3000000000000D-01  6.2286955192674D-01 -3.1458857839195D-01  6.6985826857252D-01
25  2.4000000000000D-01  6.6818654252579D-01 -3.3144466713161D-01  6.9106055119971D-01
26  2.5000000000000D-01  7.1385331680479D-01 -3.4743373704014D-01  7.0853741135597D-01
27  2.6000000000000D-01  7.5971064464282D-01 -3.6243243598247D-01  7.2213040298529D-01
28  2.7000000000000D-01  8.0559952183021D-01 -3.7632384078582D-01  7.3173199438867D-01
29  2.8000000000000D-01  8.5136172236242D-01 -3.8899796373832D-01  7.3728604515634D-01
30  2.9000000000000D-01  8.9684033463811D-01 -4.0035216677488D-01  7.3878751519797D-01
31  3.0000000000000D-01  9.4188027986886D-01 -4.1029148287257D-01  7.3628141541584D-01
32  3.1000000000000D-01  9.8632881126421D-01 -4.1872884556719D-01  7.2986102117920D-01