Au    ONCVPSP-3.3.0  r_core=   1.45604   1.56407   1.56407   1.60183
79.0000     19.0000      180430    zatom,zion,pspd
8 -116133   3     4   500     0    pspcod,pspxc,lmax,lloc,mmax,r2well
4.99000000  5.00000000  0.00000000    rchrg fchrg qchrg
2     4     4     2    nproj
3     1           extension_switch
4     4     2    nprojso
0                        -1.9473047979881D-01  9.4458593442491D+00
1  0.0000000000000D+00 -5.3446256864653D-09 -5.2096293945425D-10
2  1.0000000000000D-02  4.5787205693702D-02  8.0864681875121D-02
3  2.0000000000000D-02  9.1112987008396D-02  1.6150864414771D-01
4  3.0000000000000D-02  1.3552219346069D-01  2.4171221095939D-01
5  4.0000000000000D-02  1.7857211052348D-01  3.2125778654564D-01
6  5.0000000000000D-02  2.1983841833983D-01  3.9993087519967D-01
7  6.0000000000000D-02  2.5892086268985D-01  4.7752107577218D-01
8  7.0000000000000D-02  2.9544855799100D-01  5.5382304204666D-01
9  8.0000000000000D-02  3.2908484745668D-01  6.2863740085104D-01
10  9.0000000000000D-02  3.5953165203554D-01  7.0177162037498D-01
11  1.0000000000000D-01  3.8653324729715D-01  7.7304082184986D-01
12  1.1000000000000D-01  4.0987941589984D-01  8.4226852850495D-01
13  1.2000000000000D-01  4.2940793253738D-01  9.0928734652825D-01
14  1.3000000000000D-01  4.4500634816924D-01  9.7393957362240D-01
15  1.4000000000000D-01  4.5661305073959D-01  1.0360777316437D+00
16  1.5000000000000D-01  4.6421759032298D-01  1.0955650207327D+00
17  1.6000000000000D-01  4.6786026753486D-01  1.1522756932766D+00
18  1.7000000000000D-01  4.6763099494774D-01  1.2060953469745D+00
19  1.8000000000000D-01  4.6366745199275D-01  1.2569211371939D+00
20  1.9000000000000D-01  4.5615256424115D-01  1.3046619096983D+00
21  2.0000000000000D-01  4.4531134789461D-01  1.3492382556846D+00
22  2.1000000000000D-01  4.3140716961893D-01  1.3905824918761D+00
23  2.2000000000000D-01  4.1473748039652D-01  1.4286385691718D+00
24  2.3000000000000D-01  3.9562908972209D-01  1.4633619140399D+00
25  2.4000000000000D-01  3.7443305311258D-01  1.4947192074595D+00
26  2.5000000000000D-01  3.5151925144951D-01  1.5226881067476D+00
27  2.6000000000000D-01  3.2727074504105D-01  1.5472569160588D+00
28  2.7000000000000D-01  3.0207798841935D-01  1.5684242117041D+00
29  2.8000000000000D-01  2.7633299373336D-01  1.5861984287025D+00
30  2.9000000000000D-01  2.5042353113368D-01  1.6005974151484D+00
31  3.0000000000000D-01  2.2472745376906D-01  1.6116479610573D+00
32  3.1000000000000D-01  1.9960723293843D-01  1.6193853083319D+00
33  3.2000000000000D-01  1.7540478559871D-01  1.6238526483833D+00
34  3.3000000000000D-01  1.5243667187178D-01  1.6251006137397D+00
35  3.4000000000000D-01  1.3098973448809D-01  1.6231867696984D+00
36  3.5000000000000D-01  1.1131724533844D-01  1.6181751117084D+00
37  3.6000000000000D-01  9.3635616575905D-02  1.6101355737453D+00
38  3.7000000000000D-01  7.8121725133190D-02  1.5991435524379D+00
39  3.8000000000000D-01  6.4910890220249D-02  1.5852794511576D+00
40  3.9000000000000D-01  5.4095533478545D-02  1.5686282476789D+00
41  4.0000000000000D-01  4.5724541137545D-02  1.5492790883878D+00
42  4.1000000000000D-01  3.9803336892182D-02  1.5273249113460D+00
43  4.2000000000000D-01  3.6294663454560D-02  1.5028620998467D+00
44  4.3000000000000D-01  3.5120059981987D-02  1.4759901674048D+00
45  4.4000000000000D-01  3.6162012003527D-02  1.4468114744475D+00
46  4.5000000000000D-01  3.9266740210612D-02  1.4154309763028D+00
47  4.6000000000000D-01  4.4247584693046D-02  1.3819560014400D+00
48  4.7000000000000D-01  5.0888932030491D-02  1.3464960583083D+00
49  4.8000000000000D-01  5.8950624227114D-02  1.3091626685523D+00
50  4.9000000000000D-01  6.8172780921838D-02  1.2700692238695D+00
51  5.0000000000000D-01  7.8280959735567D-02  1.2293308633180D+00
52  5.1000000000000D-01  8.8991574122645D-02  1.1870643674890D+00
53  5.2000000000000D-01  1.0001748375973D-01  1.1433880656412D+00
54  5.3000000000000D-01  1.1107366940152D-01  1.0984217516466D+00
55  5.4000000000000D-01  1.2188290230499D-01  1.0522866044303D+00
56  5.5000000000000D-01  1.3218131780477D-01  1.0051051085005D+00
57  5.6000000000000D-01  1.4172380343097D-01  9.5700097016480D-01
58  5.7000000000000D-01  1.5028911408159D-01  9.0809902510096D-01
59  5.8000000000000D-01  1.5768463019234D-01  8.5852513311534D-01
60  5.9000000000000D-01  1.6375067951268D-01  8.0840605615573D-01
61  6.0000000000000D-01  1.6836434899145D-01  7.5786931595968D-01
62  6.1000000000000D-01  1.7144272025691D-01  7.0704302810050D-01
63  6.2000000000000D-01  1.7294547021862D-01  6.5605570964047D-01
64  6.3000000000000D-01  1.7287678728340D-01  6.0503605810567D-01
65  6.4000000000000D-01  1.7128656340887D-01  5.5411270004971D-01
66  6.5000000000000D-01  1.6827083269976D-01  5.0341390807295D-01
67  6.6000000000000D-01  1.6397143819338D-01  4.5306728579124D-01
68  6.7000000000000D-01  1.5857491982272D-01  4.0319942090117D-01
69  6.8000000000000D-01  1.5231062815439D-01  3.5393550715689D-01
70  6.9000000000000D-01  1.4544808012049D-01  3.0539893674234D-01
71  7.0000000000000D-01  1.3829358447846D-01  2.5771086518458D-01
72  7.1000000000000D-01  1.3118617603921D-01  2.1098975160097D-01
73  7.2000000000000D-01  1.2449290852980D-01  1.6535087769020D-01
74  7.3000000000000D-01  1.1860356620970D-01  1.2090584945713D-01
75  7.4000000000000D-01  1.1392486389172D-01  7.7762086195738D-02
76  7.5000000000000D-01  1.1087421362751D-01  3.6022301730765D-02
77  7.6000000000000D-01  1.0987314397284D-01 -4.2160166663826D-03
78  7.7000000000000D-01  1.1134046421427D-01 -4.2861125930654D-02
79  7.8000000000000D-01  1.1568527118910D-01 -7.9827535404493D-02
80  7.9000000000000D-01  1.2329990024633D-01 -1.1503649938558D-01
81  8.0000000000000D-01  1.3455292440833D-01 -1.4841648772691D-01
82  8.1000000000000D-01  1.4978230684541D-01 -1.7990362819319D-01
83  8.2000000000000D-01  1.6928881133592D-01 -2.0944211436846D-01
84  8.3000000000000D-01  1.9332977343835D-01 -2.3698457309439D-01
85  8.4000000000000D-01  2.2211333165461D-01 -2.6249238569569D-01
86  8.5000000000000D-01  2.5579321294315D-01 -2.8593595761684D-01
87  8.6000000000000D-01  2.9446416059658D-01 -3.0729493154921D-01
88  8.7000000000000D-01  3.3815808479868D-01 -3.2655833966485D-01
89  8.8000000000000D-01  3.8684100721043D-01 -3.4372469118723D-01
90  8.9000000000000D-01  4.4041086081232D-01 -3.5880199221201D-01
91  9.0000000000000D-01  4.9869619507710D-01 -3.7180769543508D-01
92  9.1000000000000D-01  5.6145582450587D-01 -3.8276857824088D-01
93  9.2000000000000D-01  6.2837944578956D-01 -3.9172054844094D-01
94  9.3000000000000D-01  6.9908923552707D-01 -3.9870837782011D-01
95  9.4000000000000D-01  7.7314242672202D-01 -4.0378536453432D-01
96  9.5000000000000D-01  8.5003484838207D-01 -4.0701292629648D-01
97  9.6000000000000D-01  9.2920539865205D-01 -4.0846012717403D-01
98  9.7000000000000D-01  1.0100414082376D+00 -4.0820314168964D-01
99  9.8000000000000D-01  1.0918848375326D+00 -4.0632466075757D-01
100  9.9000000000000D-01  1.1740392382489D+00 -4.0291324477754D-01
101  1.0000000000000D+00  1.2557773985170D+00 -3.9806262994314D-01
102  1.0100000000000D+00  1.3363495792568D+00 -3.9187099450834D-01
103  1.0200000000000D+00  1.4149922400880D+00 -3.8444019233446D-01
104  1.0300000000000D+00  1.4909371444593D+00 -3.7587496155409D-01
105  1.0400000000000D+00  1.5634207266532D+00 -3.6628211659863D-01
106  1.0500000000000D+00  1.6316935978859D+00 -3.5576973214016D-01
107  1.0600000000000D+00  1.6950300649995D+00 -3.4444632769554D-01
108  1.0700000000000D+00  1.7527375329754D+00 -3.3242006173251D-01
109  1.0800000000000D+00  1.8041656625049D+00 -3.1979794407183D-01
110  1.0900000000000D+00  1.8487151553642D+00 -3.0668507522992D-01
111  1.1000000000000D+00  1.8858460441787D+00 -2.9318392104797D-01
112  1.1100000000000D+00  1.9150853674057D+00 -2.7939363063541D-01
113  1.1200000000000D+00  1.9360341187698D+00 -2.6540940505621D-01
114  1.1300000000000D+00  1.9483733680520D+00 -2.5132192365159D-01
115  1.1400000000000D+00  1.9518694625174D+00 -2.3721683404124D-01
116  1.1500000000000D+00  1.9463782259819D+00 -2.2317431131620D-01
117  1.1600000000000D+00  1.9318480906720D+00 -2.0926869070789D-01
118  1.1700000000000D+00  1.9083221083613D+00 -1.9556817725969D-01
119  1.1800000000000D+00  1.8759388047443D+00 -1.8213463485903D-01
120  1.1900000000000D+00  1.8349318525164D+00 -1.6902345621963D-01
121  1.2000000000000D+00  1.7856285617996D+00 -1.5628351386815D-01
122  1.2100000000000D+00  1.7284472011060D+00 -1.4395719123138D-01
123  1.2200000000000D+00  1.6638931747438D+00 -1.3208049208002D-01
124  1.2300000000000D+00  1.5925541055520D+00 -1.2068322507450D-01
125  1.2400000000000D+00  1.5150938877061D+00 -1.0978925912238D-01
126  1.2500000000000D+00  1.4322457861045D+00 -9.9416844486661D-02
127  1.2600000000000D+00  1.3448046756985D+00 -8.9578993482833D-02
128  1.2700000000000D+00  1.2536185328126D+00 -8.0283913388311D-02
129  1.2800000000000D+00  1.1595792957430D+00 -7.1535483848179D-02
130  1.2900000000000D+00  1.0636132255972D+00 -6.3333770171214D-02
131  1.3000000000000D+00  9.6667091262842D-01 -5.5675562988361D-02
132  1.3100000000000D+00  8.6971707235989D-01 -4.8554934808058D-02
133  1.3200000000000D+00  7.7372028799823D-01 -4.1963803213967D-02
134  1.3300000000000D+00  6.7964285706246D-01 -3.5892490364324D-02
135  1.3400000000000D+00  5.8843089935007D-01 -3.0330268502139D-02
136  1.3500000000000D+00  5.0100488912897D-01 -2.5265880818967D-02
137  1.3600000000000D+00  4.1825079561093D-01 -2.0688026646175D-02
138  1.3700000000000D+00  3.4101175518558D-01 -1.6585809330696D-02
139  1.3800000000000D+00  2.7008137050141D-01 -1.2949101025157D-02
140  1.3900000000000D+00  2.0619516061548D-01 -9.7689574896831D-03
141  1.4000000000000D+00  1.5002965761714D-01 -7.0377042463870D-03
142  1.4100000000000D+00  1.0222305012579D-01 -4.7502526423471D-03
143  1.4200000000000D+00  6.3232784885140D-02 -2.9001465203596D-03
144  1.4300000000000D+00  3.3295255864724D-02 -1.4809199448508D-03
145  1.4400000000000D+00  1.3410644540580D-02 -5.2578718136897D-04
146  1.4500000000000D+00  3.4830673187902D-03 -3.5679434908437D-05
147  1.4600000000000D+00  1.6126933951398D-04  9.1518566111953D-05
148  1.4700000000000D+00 -1.3174671088681D-04  2.9054170787221D-05
149  1.4800000000000D+00  1.1392751187915D-04 -1.8547609509027D-05
150  1.4900000000000D+00  2.3634872147751D-05 -3.3384114360163D-06
151  1.5000000000000D+00 -1.7532436951522D-05  3.7847459550388D-06
152  1.5100000000000D+00 -5.0909431232009D-07 -4.0611971167769D-08
153  1.5200000000000D+00 -2.5165941870394D-06 -2.0075622157169D-07
154  1.5300000000000D+00  0.0000000000000D+00  0.0000000000000D+00
155  1.5400000000000D+00  0.0000000000000D+00  0.0000000000000D+00
156  1.5500000000000D+00  0.0000000000000D+00  0.0000000000000D+00
157  1.5600000000000D+00  0.0000000000000D+00  0.0000000000000D+00
158  1.5700000000000D+00  0.0000000000000D+00  0.0000000000000D+00
159  1.5800000000000D+00  0.0000000000000D+00  0.0000000000000D+00
160  1.5900000000000D+00  0.0000000000000D+00  0.0000000000000D+00
161  1.6000000000000D+00  0.0000000000000D+00  0.0000000000000D+00
162  1.6100000000000D+00  0.0000000000000D+00  0.0000000000000D+00
163  1.6200000000000D+00  0.0000000000000D+00  0.0000000000000D+00
164  1.6300000000000D+00  0.0000000000000D+00  0.0000000000000D+00
165  1.6400000000000D+00  0.0000000000000D+00  0.0000000000000D+00
166  1.6500000000000D+00  0.0000000000000D+00  0.0000000000000D+00
167  1.6600000000000D+00  0.0000000000000D+00  0.0000000000000D+00
168  1.6700000000000D+00  0.0000000000000D+00  0.0000000000000D+00
169  1.6800000000000D+00  0.0000000000000D+00  0.0000000000000D+00
170  1.6900000000000D+00  0.0000000000000D+00  0.0000000000000D+00
171  1.7000000000000D+00  0.0000000000000D+00  0.0000000000000D+00
172  1.7100000000000D+00  0.0000000000000D+00  0.0000000000000D+00
173  1.7200000000000D+00  0.0000000000000D+00  0.0000000000000D+00
174  1.7300000000000D+00  0.0000000000000D+00  0.0000000000000D+00
175  1.7400000000000D+00  0.0000000000000D+00  0.0000000000000D+00
176  1.7500000000000D+00  0.0000000000000D+00  0.0000000000000D+00
177  1.7600000000000D+00  0.0000000000000D+00  0.0000000000000D+00
178  1.7700000000000D+00  0.0000000000000D+00  0.0000000000000D+00
179  1.7800000000000D+00  0.0000000000000D+00  0.0000000000000D+00
180  1.7900000000000D+00  0.0000000000000D+00  0.0000000000000D+00
181  1.8000000000000D+00  0.0000000000000D+00  0.0000000000000D+00
182  1.8100000000000D+00  0.0000000000000D+00  0.0000000000000D+00
183  1.8200000000000D+00  0.0000000000000D+00  0.0000000000000D+00
184  1.8300000000000D+00  0.0000000000000D+00  0.0000000000000D+00
185  1.8400000000000D+00  0.0000000000000D+00  0.0000000000000D+00
186  1.8500000000000D+00  0.0000000000000D+00  0.0000000000000D+00
187  1.8600000000000D+00  0.0000000000000D+00  0.0000000000000D+00
188  1.8700000000000D+00  0.0000000000000D+00  0.0000000000000D+00
189  1.8800000000000D+00  0.0000000000000D+00  0.0000000000000D+00
190  1.8900000000000D+00  0.0000000000000D+00  0.0000000000000D+00
191  1.9000000000000D+00  0.0000000000000D+00  0.0000000000000D+00
192  1.9100000000000D+00  0.0000000000000D+00  0.0000000000000D+00
193  1.9200000000000D+00  0.0000000000000D+00  0.0000000000000D+00
194  1.9300000000000D+00  0.0000000000000D+00  0.0000000000000D+00
195  1.9400000000000D+00  0.0000000000000D+00  0.0000000000000D+00
196  1.9500000000000D+00  0.0000000000000D+00  0.0000000000000D+00
197  1.9600000000000D+00  0.0000000000000D+00  0.0000000000000D+00
198  1.9700000000000D+00  0.0000000000000D+00  0.0000000000000D+00
199  1.9800000000000D+00  0.0000000000000D+00  0.0000000000000D+00
200  1.9900000000000D+00  0.0000000000000D+00  0.0000000000000D+00
201  2.0000000000000D+00  0.0000000000000D+00  0.0000000000000D+00
202  2.0100000000000D+00  0.0000000000000D+00  0.0000000000000D+00
203  2.0200000000000D+00  0.0000000000000D+00  0.0000000000000D+00
204  2.0300000000000D+00  0.0000000000000D+00  0.0000000000000D+00
205  2.0400000000000D+00  0.0000000000000D+00  0.0000000000000D+00
206  2.0500000000000D+00  0.0000000000000D+00  0.0000000000000D+00
207  2.0600000000000D+00  0.0000000000000D+00  0.0000000000000D+00
208  2.0700000000000D+00  0.0000000000000D+00  0.0000000000000D+00
209  2.0800000000000D+00  0.0000000000000D+00  0.0000000000000D+00
210  2.0900000000000D+00  0.0000000000000D+00  0.0000000000000D+00
211  2.1000000000000D+00  0.0000000000000D+00  0.0000000000000D+00
212  2.1100000000000D+00  0.0000000000000D+00  0.0000000000000D+00
213  2.1200000000000D+00  0.0000000000000D+00  0.0000000000000D+00
214  2.1300000000000D+00  0.0000000000000D+00  0.0000000000000D+00
215  2.1400000000000D+00  0.0000000000000D+00  0.0000000000000D+00
216  2.1500000000000D+00  0.0000000000000D+00  0.0000000000000D+00
217  2.1600000000000D+00  0.0000000000000D+00  0.0000000000000D+00
218  2.1700000000000D+00  0.0000000000000D+00  0.0000000000000D+00
219  2.1800000000000D+00  0.0000000000000D+00  0.0000000000000D+00
220  2.1900000000000D+00  0.0000000000000D+00  0.0000000000000D+00
221  2.2000000000000D+00  0.0000000000000D+00  0.0000000000000D+00
222  2.2100000000000D+00  0.0000000000000D+00  0.0000000000000D+00
223  2.2200000000000D+00  0.0000000000000D+00  0.0000000000000D+00
224  2.2300000000000D+00  0.0000000000000D+00  0.0000000000000D+00
225  2.2400000000000D+00  0.0000000000000D+00  0.0000000000000D+00
226  2.2500000000000D+00  0.0000000000000D+00  0.0000000000000D+00
227  2.2600000000000D+00  0.0000000000000D+00  0.0000000000000D+00
228  2.2700000000000D+00  0.0000000000000D+00  0.0000000000000D+00
229  2.2800000000000D+00  0.0000000000000D+00  0.0000000000000D+00
230  2.2900000000000D+00  0.0000000000000D+00  0.0000000000000D+00
231  2.3000000000000D+00  0.0000000000000D+00  0.0000000000000D+00
232  2.3100000000000D+00  0.0000000000000D+00  0.0000000000000D+00
233  2.3200000000000D+00  0.0000000000000D+00  0.0000000000000D+00
234  2.3300000000000D+00  0.0000000000000D+00  0.0000000000000D+00
235  2.3400000000000D+00  0.0000000000000D+00  0.0000000000000D+00
236  2.3500000000000D+00  0.0000000000000D+00  0.0000000000000D+00
237  2.3600000000000D+00  0.0000000000000D+00  0.0000000000000D+00
238  2.3700000000000D+00  0.0000000000000D+00  0.0000000000000D+00
239  2.3800000000000D+00  0.0000000000000D+00  0.0000000000000D+00
240  2.3900000000000D+00  0.0000000000000D+00  0.0000000000000D+00
241  2.4000000000000D+00  0.0000000000000D+00  0.0000000000000D+00
242  2.4100000000000D+00  0.0000000000000D+00  0.0000000000000D+00
243  2.4200000000000D+00  0.0000000000000D+00  0.0000000000000D+00
244  2.4300000000000D+00  0.0000000000000D+00  0.0000000000000D+00
245  2.4400000000000D+00  0.0000000000000D+00  0.0000000000000D+00
246  2.4500000000000D+00  0.0000000000000D+00  0.0000000000000D+00
247  2.4600000000000D+00  0.0000000000000D+00  0.0000000000000D+00
248  2.4700000000000D+00  0.0000000000000D+00  0.0000000000000D+00
249  2.4800000000000D+00  0.0000000000000D+00  0.0000000000000D+00
250  2.4900000000000D+00  0.0000000000000D+00  0.0000000000000D+00
251  2.5000000000000D+00  0.0000000000000D+00  0.0000000000000D+00
252  2.5100000000000D+00  0.0000000000000D+00  0.0000000000000D+00
253  2.5200000000000D+00  0.0000000000000D+00  0.0000000000000D+00
254  2.5300000000000D+00  0.0000000000000D+00  0.0000000000000D+00
255  2.5400000000000D+00  0.0000000000000D+00  0.0000000000000D+00
256  2.5500000000000D+00  0.0000000000000D+00  0.0000000000000D+00
257  2.5600000000000D+00  0.0000000000000D+00  0.0000000000000D+00
258  2.5700000000000D+00  0.0000000000000D+00  0.0000000000000D+00
259  2.5800000000000D+00  0.0000000000000D+00  0.0000000000000D+00
260  2.5900000000000D+00  0.0000000000000D+00  0.0000000000000D+00
261  2.6000000000000D+00  0.0000000000000D+00  0.0000000000000D+00
262  2.6100000000000D+00  0.0000000000000D+00  0.0000000000000D+00
263  2.6200000000000D+00  0.0000000000000D+00  0.0000000000000D+00
264  2.6300000000000D+00  0.0000000000000D+00  0.0000000000000D+00
265  2.6400000000000D+00  0.0000000000000D+00  0.0000000000000D+00
266  2.6500000000000D+00  0.0000000000000D+00  0.0000000000000D+00
267  2.6600000000000D+00  0.0000000000000D+00  0.0000000000000D+00
268  2.6700000000000D+00  0.0000000000000D+00  0.0000000000000D+00
269  2.6800000000000D+00  0.0000000000000D+00  0.0000000000000D+00
270  2.6900000000000D+00  0.0000000000000D+00  0.0000000000000D+00
271  2.7000000000000D+00  0.0000000000000D+00  0.0000000000000D+00
272  2.7100000000000D+00  0.0000000000000D+00  0.0000000000000D+00
273  2.7200000000000D+00  0.0000000000000D+00  0.0000000000000D+00
274  2.7300000000000D+00  0.0000000000000D+00  0.0000000000000D+00
275  2.7400000000000D+00  0.0000000000000D+00  0.0000000000000D+00
276  2.7500000000000D+00  0.0000000000000D+00  0.0000000000000D+00
277  2.7600000000000D+00  0.0000000000000D+00  0.0000000000000D+00
278  2.7700000000000D+00  0.0000000000000D+00  0.0000000000000D+00
279  2.7800000000000D+00  0.0000000000000D+00  0.0000000000000D+00
280  2.7900000000000D+00  0.0000000000000D+00  0.0000000000000D+00
281  2.8000000000000D+00  0.0000000000000D+00  0.0000000000000D+00
282  2.8100000000000D+00  0.0000000000000D+00  0.0000000000000D+00
283  2.8200000000000D+00  0.0000000000000D+00  0.0000000000000D+00
284  2.8300000000000D+00  0.0000000000000D+00  0.0000000000000D+00
285  2.8400000000000D+00  0.0000000000000D+00  0.0000000000000D+00
286  2.8500000000000D+00  0.0000000000000D+00  0.0000000000000D+00
287  2.8600000000000D+00  0.0000000000000D+00  0.0000000000000D+00
288  2.8700000000000D+00  0.0000000000000D+00  0.0000000000000D+00
289  2.8800000000000D+00  0.0000000000000D+00  0.0000000000000D+00
290  2.8900000000000D+00  0.0000000000000D+00  0.0000000000000D+00
291  2.9000000000000D+00  0.0000000000000D+00  0.0000000000000D+00
292  2.9100000000000D+00  0.0000000000000D+00  0.0000000000000D+00
293  2.9200000000000D+00  0.0000000000000D+00  0.0000000000000D+00
294  2.9300000000000D+00  0.0000000000000D+00  0.0000000000000D+00
295  2.9400000000000D+00  0.0000000000000D+00  0.0000000000000D+00
296  2.9500000000000D+00  0.0000000000000D+00  0.0000000000000D+00
297  2.9600000000000D+00  0.0000000000000D+00  0.0000000000000D+00
298  2.9700000000000D+00  0.0000000000000D+00  0.0000000000000D+00
299  2.9800000000000D+00  0.0000000000000D+00  0.0000000000000D+00
300  2.9900000000000D+00  0.0000000000000D+00  0.0000000000000D+00
301  3.0000000000000D+00  0.0000000000000D+00  0.0000000000000D+00
302  3.0100000000000D+00  0.0000000000000D+00  0.0000000000000D+00
303  3.0200000000000D+00  0.0000000000000D+00  0.0000000000000D+00
304  3.0300000000000D+00  0.0000000000000D+00  0.0000000000000D+00
305  3.0400000000000D+00  0.0000000000000D+00  0.0000000000000D+00
306  3.0500000000000D+00  0.0000000000000D+00  0.0000000000000D+00
307  3.0600000000000D+00  0.0000000000000D+00  0.0000000000000D+00
308  3.0700000000000D+00  0.0000000000000D+00  0.0000000000000D+00
309  3.0800000000000D+00  0.0000000000000D+00  0.0000000000000D+00
310  3.0900000000000D+00  0.0000000000000D+00  0.0000000000000D+00
311  3.1000000000000D+00  0.0000000000000D+00  0.0000000000000D+00
312  3.1100000000000D+00  0.0000000000000D+00  0.0000000000000D+00
313  3.1200000000000D+00  0.0000000000000D+00  0.0000000000000D+00
314  3.1300000000000D+00  0.0000000000000D+00  0.0000000000000D+00
315  3.1400000000000D+00  0.0000000000000D+00  0.0000000000000D+00
316  3.1500000000000D+00  0.0000000000000D+00  0.0000000000000D+00
317  3.1600000000000D+00  0.0000000000000D+00  0.0000000000000D+00
318  3.1700000000000D+00  0.0000000000000D+00  0.0000000000000D+00
319  3.1800000000000D+00  0.0000000000000D+00  0.0000000000000D+00
320  3.1900000000000D+00  0.0000000000000D+00  0.0000000000000D+00
321  3.2000000000000D+00  0.0000000000000D+00  0.0000000000000D+00
322  3.2100000000000D+00  0.0000000000000D+00  0.0000000000000D+00
323  3.2200000000000D+00  0.0000000000000D+00  0.0000000000000D+00
324  3.2300000000000D+00  0.0000000000000D+00  0.0000000000000D+00
325  3.2400000000000D+00  0.0000000000000D+00  0.0000000000000D+00
326  3.2500000000000D+00  0.0000000000000D+00  0.0000000000000D+00
327  3.2600000000000D+00  0.0000000000000D+00  0.0000000000000D+00
328  3.2700000000000D+00  0.0000000000000D+00  0.0000000000000D+00
329  3.2800000000000D+00  0.0000000000000D+00  0.0000000000000D+00
330  3.2900000000000D+00  0.0000000000000D+00  0.0000000000000D+00
331  3.3000000000000D+00  0.0000000000000D+00  0.0000000000000D+00
332  3.3100000000000D+00  0.0000000000000D+00  0.0000000000000D+00
333  3.3200000000000D+00  0.0000000000000D+00  0.0000000000000D+00
334  3.3300000000000D+00  0.0000000000000D+00  0.0000000000000D+00
335  3.3400000000000D+00  0.0000000000000D+00  0.0000000000000D+00
336  3.3500000000000D+00  0.0000000000000D+00  0.0000000000000D+00
337  3.3600000000000D+00  0.0000000000000D+00  0.0000000000000D+00
338  3.3700000000000D+00  0.0000000000000D+00  0.0000000000000D+00
339  3.3800000000000D+00  0.0000000000000D+00  0.0000000000000D+00
340  3.3900000000000D+00  0.0000000000000D+00  0.0000000000000D+00
341  3.4000000000000D+00  0.0000000000000D+00  0.0000000000000D+00
342  3.4100000000000D+00  0.0000000000000D+00  0.0000000000000D+00
343  3.4200000000000D+00  0.0000000000000D+00  0.0000000000000D+00
344  3.4300000000000D+00  0.0000000000000D+00  0.0000000000000D+00
345  3.4400000000000D+00  0.0000000000000D+00  0.0000000000000D+00
346  3.4500000000000D+00  0.0000000000000D+00  0.0000000000000D+00
347  3.4600000000000D+00  0.0000000000000D+00  0.0000000000000D+00
348  3.4700000000000D+00  0.0000000000000D+00  0.0000000000000D+00
349  3.4800000000000D+00  0.0000000000000D+00  0.0000000000000D+00
350  3.4900000000000D+00  0.0000000000000D+00  0.0000000000000D+00
351  3.5000000000000D+00  0.0000000000000D+00  0.0000000000000D+00
352  3.5100000000000D+00  0.0000000000000D+00  0.0000000000000D+00
353  3.5200000000000D+00  0.0000000000000D+00  0.0000000000000D+00
354  3.5300000000000D+00  0.0000000000000D+00  0.0000000000000D+00
355  3.5400000000000D+00  0.0000000000000D+00  0.0000000000000D+00
356  3.5500000000000D+00  0.0000000000000D+00  0.0000000000000D+00
357  3.5600000000000D+00  0.0000000000000D+00  0.0000000000000D+00
358  3.5700000000000D+00  0.0000000000000D+00  0.0000000000000D+00
359  3.5800000000000D+00  0.0000000000000D+00  0.0000000000000D+00
360  3.5900000000000D+00  0.0000000000000D+00  0.0000000000000D+00
361  3.6000000000000D+00  0.0000000000000D+00  0.0000000000000D+00
362  3.6100000000000D+00  0.0000000000000D+00  0.0000000000000D+00
363  3.6200000000000D+00  0.0000000000000D+00  0.0000000000000D+00
364  3.6300000000000D+00  0.0000000000000D+00  0.0000000000000D+00
365  3.6400000000000D+00  0.0000000000000D+00  0.0000000000000D+00
366  3.6500000000000D+00  0.0000000000000D+00  0.0000000000000D+00
367  3.6600000000000D+00  0.0000000000000D+00  0.0000000000000D+00
368  3.6700000000000D+00  0.0000000000000D+00  0.0000000000000D+00
369  3.6800000000000D+00  0.0000000000000D+00  0.0000000000000D+00
370  3.6900000000000D+00  0.0000000000000D+00  0.0000000000000D+00
371  3.7000000000000D+00  0.0000000000000D+00  0.0000000000000D+00
372  3.7100000000000D+00  0.0000000000000D+00  0.0000000000000D+00
373  3.7200000000000D+00  0.0000000000000D+00  0.0000000000000D+00
374  3.7300000000000D+00  0.0000000000000D+00  0.0000000000000D+00
375  3.7400000000000D+00  0.0000000000000D+00  0.0000000000000D+00
376  3.7500000000000D+00  0.0000000000000D+00  0.0000000000000D+00
377  3.7600000000000D+00  0.0000000000000D+00  0.0000000000000D+00
378  3.7700000000000D+00  0.0000000000000D+00  0.0000000000000D+00
379  3.7800000000000D+00  0.0000000000000D+00  0.0000000000000D+00
380  3.7900000000000D+00  0.0000000000000D+00  0.0000000000000D+00
381  3.8000000000000D+00  0.0000000000000D+00  0.0000000000000D+00
382  3.8100000000000D+00  0.0000000000000D+00  0.0000000000000D+00
383  3.8200000000000D+00  0.0000000000000D+00  0.0000000000000D+00
384  3.8300000000000D+00  0.0000000000000D+00  0.0000000000000D+00
385  3.8400000000000D+00  0.0000000000000D+00  0.0000000000000D+00
386  3.8500000000000D+00  0.0000000000000D+00  0.0000000000000D+00
387  3.8600000000000D+00  0.0000000000000D+00  0.0000000000000D+00
388  3.8700000000000D+00  0.0000000000000D+00  0.0000000000000D+00
389  3.8800000000000D+00  0.0000000000000D+00  0.0000000000000D+00
390  3.8900000000000D+00  0.0000000000000D+00  0.0000000000000D+00
391  3.9000000000000D+00  0.0000000000000D+00  0.0000000000000D+00
392  3.9100000000000D+00  0.0000000000000D+00  0.0000000000000D+00
393  3.9200000000000D+00  0.0000000000000D+00  0.0000000000000D+00
394  3.9300000000000D+00  0.0000000000000D+00  0.0000000000000D+00
395  3.9400000000000D+00  0.0000000000000D+00  0.0000000000000D+00
396  3.9500000000000D+00  0.0000000000000D+00  0.0000000000000D+00
397  3.9600000000000D+00  0.0000000000000D+00  0.0000000000000D+00
398  3.9700000000000D+00  0.0000000000000D+00  0.0000000000000D+00
399  3.9800000000000D+00  0.0000000000000D+00  0.0000000000000D+00
400  3.9900000000000D+00  0.0000000000000D+00  0.0000000000000D+00
401  4.0000000000000D+00  0.0000000000000D+00  0.0000000000000D+00
402  4.0100000000000D+00  0.0000000000000D+00  0.0000000000000D+00
403  4.0200000000000D+00  0.0000000000000D+00  0.0000000000000D+00
404  4.0300000000000D+00  0.0000000000000D+00  0.0000000000000D+00
405  4.0400000000000D+00  0.0000000000000D+00  0.0000000000000D+00
406  4.0500000000000D+00  0.0000000000000D+00  0.0000000000000D+00
407  4.0600000000000D+00  0.0000000000000D+00  0.0000000000000D+00
408  4.0700000000000D+00  0.0000000000000D+00  0.0000000000000D+00
409  4.0800000000000D+00  0.0000000000000D+00  0.0000000000000D+00
410  4.0900000000000D+00  0.0000000000000D+00  0.0000000000000D+00
411  4.1000000000000D+00  0.0000000000000D+00  0.0000000000000D+00
412  4.1100000000000D+00  0.0000000000000D+00  0.0000000000000D+00
413  4.1200000000000D+00  0.0000000000000D+00  0.0000000000000D+00
414  4.1300000000000D+00  0.0000000000000D+00  0.0000000000000D+00
415  4.1400000000000D+00  0.0000000000000D+00  0.0000000000000D+00
416  4.1500000000000D+00  0.0000000000000D+00  0.0000000000000D+00
417  4.1600000000000D+00  0.0000000000000D+00  0.0000000000000D+00
418  4.1700000000000D+00  0.0000000000000D+00  0.0000000000000D+00
419  4.1800000000000D+00  0.0000000000000D+00  0.0000000000000D+00
420  4.1900000000000D+00  0.0000000000000D+00  0.0000000000000D+00
421  4.2000000000000D+00  0.0000000000000D+00  0.0000000000000D+00
422  4.2100000000000D+00  0.0000000000000D+00  0.0000000000000D+00
423  4.2200000000000D+00  0.0000000000000D+00  0.0000000000000D+00
424  4.2300000000000D+00  0.0000000000000D+00  0.0000000000000D+00
425  4.2400000000000D+00  0.0000000000000D+00  0.0000000000000D+00
426  4.2500000000000D+00  0.0000000000000D+00  0.0000000000000D+00
427  4.2600000000000D+00  0.0000000000000D+00  0.0000000000000D+00
428  4.2700000000000D+00  0.0000000000000D+00  0.0000000000000D+00
429  4.2800000000000D+00  0.0000000000000D+00  0.0000000000000D+00
430  4.2900000000000D+00  0.0000000000000D+00  0.0000000000000D+00
431  4.3000000000000D+00  0.0000000000000D+00  0.0000000000000D+00
432  4.3100000000000D+00  0.0000000000000D+00  0.0000000000000D+00
433  4.3200000000000D+00  0.0000000000000D+00  0.0000000000000D+00
434  4.3300000000000D+00  0.0000000000000D+00  0.0000000000000D+00
435  4.3400000000000D+00  0.0000000000000D+00  0.0000000000000D+00
436  4.3500000000000D+00  0.0000000000000D+00  0.0000000000000D+00
437  4.3600000000000D+00  0.0000000000000D+00  0.0000000000000D+00
438  4.3700000000000D+00  0.0000000000000D+00  0.0000000000000D+00
439  4.3800000000000D+00  0.0000000000000D+00  0.0000000000000D+00
440  4.3900000000000D+00  0.0000000000000D+00  0.0000000000000D+00
441  4.4000000000000D+00  0.0000000000000D+00  0.0000000000000D+00
442  4.4100000000000D+00  0.0000000000000D+00  0.0000000000000D+00
443  4.4200000000000D+00  0.0000000000000D+00  0.0000000000000D+00