Ba    ONCVPSP-3.3.0  r_core=   1.95835   1.80147   1.91218
56.0000     10.0000      180429    zatom,zion,pspd
8 -116133   2     4   600     0    pspcod,pspxc,lmax,lloc,mmax,r2well
5.99000000  5.00000000  0.00000000    rchrg fchrg qchrg
2     4     3     0    nproj
3     1           extension_switch
4     4     0    nprojso
0                         6.3684392819258D-01  6.5551649495511D+00
1  0.0000000000000D+00 -1.1182331102755D-10  2.3403973203884D-11
2  1.0000000000000D-02 -1.7585393126885D-03  2.4459050899968D-02
3  2.0000000000000D-02 -3.5690964382786D-03  4.8925559847619D-02
4  3.0000000000000D-02 -5.4832071877678D-03  7.3406858025256D-02
5  4.0000000000000D-02 -7.5514470869429D-03  9.7910023741420D-02
6  5.0000000000000D-02 -9.8229605017847D-03  1.2244175813056D-01
7  6.0000000000000D-02 -1.2345000805908D-02  1.4700826339991D-01
8  7.0000000000000D-02 -1.5162485138741D-02  1.7161512444509D-01
9  8.0000000000000D-02 -1.8317567191324D-02  1.9626719463238D-01
10  9.0000000000000D-02 -2.1849231318381D-02  2.2096848651696D-01
11  1.0000000000000D-01 -2.5792911111746D-02  2.4572206823180D-01
12  1.1000000000000D-01 -3.0180135382630D-02  2.7052996624280D-01
13  1.2000000000000D-01 -3.5038204289857D-02  2.9539307512146D-01
14  1.3000000000000D-01 -4.0389898119750D-02  3.2031107493788D-01
15  1.4000000000000D-01 -4.6253220972594D-02  3.4528235682391D-01
16  1.5000000000000D-01 -5.2641181342487D-02  3.7030395719997D-01
17  1.6000000000000D-01 -5.9561611293417D-02  3.9537150109902D-01
18  1.7000000000000D-01 -6.7017025638053D-02  4.2047915495844D-01
19  1.8000000000000D-01 -7.5004522217187D-02  4.4561958918530D-01
20  1.9000000000000D-01 -8.3515724061770D-02  4.7078395073327D-01
21  2.0000000000000D-01 -9.2536763896273D-02  4.9596184586060D-01
22  2.1000000000000D-01 -1.0204831111568D-01  5.2114133316882D-01
23  2.2000000000000D-01 -1.1202564104063D-01  5.4630892695169D-01
24  2.3000000000000D-01 -1.2243874592823D-01  5.7144961081311D-01
25  2.4000000000000D-01 -1.3325248689392D-01  5.9654686144374D-01
26  2.5000000000000D-01 -1.4442678558219D-01  6.2158268237626D-01
27  2.6000000000000D-01 -1.5591685411714D-01  6.4653764747291D-01
28  2.7000000000000D-01 -1.6767346156610D-01  6.7139095383284D-01
29  2.8000000000000D-01 -1.7964323486705D-01  6.9612048374439D-01
30  2.9000000000000D-01 -1.9176899190227D-01  7.2070287524750D-01
31  3.0000000000000D-01 -2.0399010415118D-01  7.4511360081459D-01
32  3.1000000000000D-01 -2.1624288612489D-01  7.6932705360581D-01
33  3.2000000000000D-01 -2.2846100857675D-01  7.9331664070564D-01
34  3.3000000000000D-01 -2.4057593229766D-01  8.1705488270366D-01
35  3.4000000000000D-01 -2.5251735914471D-01  8.4051351894324D-01
36  3.5000000000000D-01 -2.6421369681726D-01  8.6366361772731D-01
37  3.6000000000000D-01 -2.7559253378754D-01  8.8647569074162D-01
38  3.7000000000000D-01 -2.8658112071417D-01  9.0891981093268D-01
39  3.8000000000000D-01 -2.9710685461668D-01  9.3096573305960D-01
40  3.9000000000000D-01 -3.0709776206893D-01  9.5258301612767D-01
41  4.0000000000000D-01 -3.1648297767830D-01  9.7374114690537D-01
42  4.1000000000000D-01 -3.2519321415593D-01  9.9440966372658D-01
43  4.2000000000000D-01 -3.3316122035231D-01  1.0145582797859D+00
44  4.3000000000000D-01 -3.4032222372919D-01  1.0341570051471D+00
45  4.4000000000000D-01 -3.4661435386482D-01  1.0531762667015D+00
46  4.5000000000000D-01 -3.5197904374296D-01  1.0715870253373D+00
47  4.6000000000000D-01 -3.5636140575555D-01  1.0893608896106D+00
48  4.7000000000000D-01 -3.5971057955402D-01  1.1064702252389D+00
49  4.8000000000000D-01 -3.6198004911236D-01  1.1228882597818D+00
50  4.9000000000000D-01 -3.6312792661581D-01  1.1385891819146D+00
51  5.0000000000000D-01 -3.6311720105853D-01  1.1535482347467D+00
52  5.1000000000000D-01 -3.6191594972295D-01  1.1677418026928D+00
53  5.2000000000000D-01 -3.5949751101563D-01  1.1811474914553D+00
54  5.3000000000000D-01 -3.5584061745320D-01  1.1937442007383D+00
55  5.4000000000000D-01 -3.5092948791876D-01  1.2055121893722D+00
56  5.5000000000000D-01 -3.4475387864521D-01  1.2164331325915D+00
57  5.6000000000000D-01 -3.3730909272444D-01  1.2264901712726D+00
58  5.7000000000000D-01 -3.2859594828418D-01  1.2356679530048D+00
59  5.8000000000000D-01 -3.1862070582010D-01  1.2439526649327D+00
60  5.9000000000000D-01 -3.0739495551092D-01  1.2513320583736D+00
61  6.0000000000000D-01 -2.9493546568124D-01  1.2577954652817D+00
62  6.1000000000000D-01 -2.8126399390292D-01  1.2633338066922D+00
63  6.2000000000000D-01 -2.6640706254341D-01  1.2679395933423D+00
64  6.3000000000000D-01 -2.5039570087042D-01  1.2716069187277D+00
65  6.4000000000000D-01 -2.3326515610909D-01  1.2743314449095D+00
66  6.5000000000000D-01 -2.1505457611469D-01  1.2761103814420D+00
67  6.6000000000000D-01 -1.9580666656898D-01  1.2769424578433D+00
68  6.7000000000000D-01 -1.7556732583122D-01  1.2768278900770D+00
69  6.8000000000000D-01 -1.5438526077164D-01  1.2757683415576D+00
70  6.9000000000000D-01 -1.3231158708397D-01  1.2737668792279D+00
71  7.0000000000000D-01 -1.0939941771493D-01  1.2708279252913D+00
72  7.1000000000000D-01 -8.5703443158260D-02  1.2669572052095D+00
73  7.2000000000000D-01 -6.1279507440066D-02  1.2621616925957D+00
74  7.3000000000000D-01 -3.6184183667842D-02  1.2564495516513D+00
75  7.4000000000000D-01 -1.0474353029468D-02  1.2498300778049D+00
76  7.5000000000000D-01  1.5793208892370D-02  1.2423136372114D+00
77  7.6000000000000D-01  4.2562234678549D-02  1.2339116057726D+00
78  7.7000000000000D-01  6.9777352780374D-02  1.2246363083288D+00
79  7.8000000000000D-01  9.7384456770992D-02  1.2145009586552D+00
80  7.9000000000000D-01  1.2533105269044D-01  1.2035196008795D+00
81  8.0000000000000D-01  1.5356658121719D-01  1.1917070529076D+00
82  8.1000000000000D-01  1.8204271161376D-01  1.1790788524139D+00
83  8.2000000000000D-01  2.1071360463630D-01  1.1656512059139D+00
84  8.3000000000000D-01  2.3953614186870D-01  1.1514409413944D+00
85  8.4000000000000D-01  2.6847011923506D-01  1.1364654649300D+00
86  8.5000000000000D-01  2.9747840276271D-01  1.1207427216625D+00
87  8.6000000000000D-01  3.2652704500473D-01  1.1042911614617D+00
88  8.7000000000000D-01  3.5558536088577D-01  1.0871297095328D+00
89  8.8000000000000D-01  3.8462596210480D-01  1.0692777421659D+00
90  8.9000000000000D-01  4.1362474960920D-01  1.0507550677664D+00
91  9.0000000000000D-01  4.4256086404468D-01  1.0315819132329D+00
92  9.1000000000000D-01  4.7141659448091D-01  1.0117789156861D+00
93  9.2000000000000D-01  5.0017724610976D-01  9.9136711948030D-01
94  9.3000000000000D-01  5.2883096800907D-01  9.7036797836552D-01
95  9.4000000000000D-01  5.5736854245641D-01  9.4880336259664D-01
96  9.5000000000000D-01  5.8578313766033D-01  9.2669557072271D-01
97  9.6000000000000D-01  6.1407002614848D-01  9.0406734572395D-01
98  9.7000000000000D-01  6.4222627140906D-01  8.8094189510276D-01
99  9.8000000000000D-01  6.7025038572108D-01  8.5734291447592D-01
100  9.9000000000000D-01  6.9814196242702D-01  8.3329461416048D-01
101  1.0000000000000D+00  7.2590128619634D-01  8.0882174819460D-01
102  1.0100000000000D+00  7.5352892508935D-01  7.8394964518959D-01
103  1.0200000000000D+00  7.8102530847848D-01  7.5870424036672D-01
104  1.0300000000000D+00  8.0839029508037D-01  7.3311210809876D-01
105  1.0400000000000D+00  8.3562273552693D-01  7.0720049424654D-01
106  1.0500000000000D+00  8.6272003403858D-01  6.8099734755803D-01
107  1.0600000000000D+00  8.8967771385689D-01  6.5453134938222D-01
108  1.0700000000000D+00  9.1648899115520D-01  6.2783194094050D-01
109  1.0800000000000D+00  9.4314436216289D-01  6.0092934739696D-01
110  1.0900000000000D+00  9.6963120821448D-01  5.7385459797458D-01
111  1.1000000000000D+00  9.9593342336563D-01  5.4663954137870D-01
112  1.1100000000000D+00  1.0220310691178D+00  5.1931685580827D-01
113  1.1200000000000D+00  1.0479000606506D+00  4.9192005286299D-01
114  1.1300000000000D+00  1.0735118887588D+00  4.6448347469197D-01
115  1.1400000000000D+00  1.0988333814657D+00  4.3704228377193D-01
116  1.1500000000000D+00  1.1238265090191D+00  4.0963244475191D-01
117  1.1600000000000D+00  1.1484482357059D+00  3.8229069785160D-01
118  1.1700000000000D+00  1.1726504215255D+00  3.5505452337336D-01
119  1.1800000000000D+00  1.1963797763957D+00  3.2796209695485D-01
120  1.1900000000000D+00  1.2195778692458D+00  3.0105223524848D-01
121  1.2000000000000D+00  1.2421811938470D+00  2.7436433180523D-01
122  1.2100000000000D+00  1.2641212927741D+00  2.4793828302455D-01
123  1.2200000000000D+00  1.2853249404110D+00  2.2181440411883D-01
124  1.2300000000000D+00  1.3057143856001D+00  1.9603333509885D-01
125  1.2400000000000D+00  1.3252076537548D+00  1.7063593692724D-01
126  1.2500000000000D+00  1.3437189078114D+00  1.4566317806783D-01
127  1.2600000000000D+00  1.3611588672137D+00  1.2115601169181D-01
128  1.2700000000000D+00  1.3774352830998D+00  9.7155243986161D-02
129  1.2800000000000D+00  1.3924534675325D+00  7.3701394068586D-02
130  1.2900000000000D+00  1.4061168744562D+00  5.0834546041524D-02
131  1.3000000000000D+00  1.4183277290057D+00  2.8594193908067D-02
132  1.3100000000000D+00  1.4289877014899D+00  7.0190801240214D-03
133  1.3200000000000D+00  1.4379986223907D+00 -1.3852971440576D-02
134  1.3300000000000D+00  1.4452632334573D+00 -3.3985227135438D-02
135  1.3400000000000D+00  1.4506859701110D+00 -5.3342218789831D-02
136  1.3500000000000D+00  1.4541737700946D+00 -7.1889921577499D-02
137  1.3600000000000D+00  1.4556369023505D+00 -8.9595933303348D-02
138  1.3700000000000D+00  1.4549898104814D+00 -1.0642965399385D-01
139  1.3800000000000D+00  1.4521519645077D+00 -1.2236246456103D-01
140  1.3900000000000D+00  1.4470487143557D+00 -1.3736790327220D-01
141  1.4000000000000D+00  1.4396121387282D+00 -1.5142183878599D-01
142  1.4100000000000D+00  1.4297818823581D+00 -1.6450263841909D-01
143  1.4200000000000D+00  1.4175059750489D+00 -1.7659133037881D-01
144  1.4300000000000D+00  1.4027416254640D+00 -1.8767175861489D-01
145  1.4400000000000D+00  1.3854559830926D+00 -1.9773072905901D-01
146  1.4500000000000D+00  1.3656268613652D+00 -2.0675814590926D-01
147  1.4600000000000D+00  1.3432434155383D+00 -2.1474713677742D-01
148  1.4700000000000D+00  1.3183067689225D+00 -2.2169416549169D-01
149  1.4800000000000D+00  1.2908305808489D+00 -2.2759913132504D-01
150  1.4900000000000D+00  1.2608415514140D+00 -2.3246545375067D-01
151  1.5000000000000D+00  1.2283798559290D+00 -2.3630014139969D-01
152  1.5100000000000D+00  1.1934995057106D+00 -2.3911384464750D-01
153  1.5200000000000D+00  1.1562686285773D+00 -2.4092089059486D-01
154  1.5300000000000D+00  1.1167696662526D+00 -2.4173929998205D-01
155  1.5400000000000D+00  1.0750994839828D+00 -2.4159078519189D-01
156  1.5500000000000D+00  1.0313693891176D+00 -2.4050072878913D-01
157  1.5600000000000D+00  9.8570505690917D-01 -2.3849814233540D-01
158  1.5700000000000D+00  9.3824635936582D-01 -2.3561560474828D-01
159  1.5800000000000D+00  8.8914709885622D-01 -2.3188918061776D-01
160  1.5900000000000D+00  8.3857464125605D-01 -2.2735831754677D-01
161  1.6000000000000D+00  7.8670945385834D-01 -2.2206572361440D-01
162  1.6100000000000D+00  7.3374454225577D-01 -2.1605722391830D-01
163  1.6200000000000D+00  6.7988479386345D-01 -2.0938159776740D-01
164  1.6300000000000D+00  6.2534622346236D-01 -2.0209039571227D-01
165  1.6400000000000D+00  5.7035512917943D-01 -1.9423773812571D-01
166  1.6500000000000D+00  5.1514715643845D-01 -1.8588009494081D-01
167  1.6600000000000D+00  4.5996627869344D-01 -1.7707604833231D-01
168  1.6700000000000D+00  4.0506369452813D-01 -1.6788603834663D-01
169  1.6800000000000D+00  3.5069665040005D-01 -1.5837209335347D-01
170  1.6900000000000D+00  2.9712719035142D-01 -1.4859754566118D-01
171  1.7000000000000D+00  2.4462084254734D-01 -1.3862673427768D-01
172  1.7100000000000D+00  1.9344524532515D-01 -1.2852469542286D-01
173  1.7200000000000D+00  1.4386872324979D-01 -1.1835684289240D-01
174  1.7300000000000D+00  9.6158816906844D-02 -1.0818863908216D-01
175  1.7400000000000D+00  5.0580775328402D-02 -9.8085258514796D-02
176  1.7500000000000D+00  7.3960221603496D-03 -8.8111245931694D-02
177  1.7600000000000D+00 -3.3139387894576D-02 -7.8330171984547D-02
178  1.7700000000000D+00 -7.0776414526981D-02 -6.8804271420751D-02
179  1.7800000000000D+00 -1.0527433999981D-01 -5.9594139300612D-02
180  1.7900000000000D+00 -1.3640260513282D-01 -5.0758333046714D-02
181  1.8000000000000D+00 -1.6394297808849D-01 -4.2352929808429D-02
182  1.8100000000000D+00 -1.8768942653004D-01 -3.4431458316714D-02
183  1.8200000000000D+00 -2.0744863482895D-01 -2.7044721460823D-02
184  1.8300000000000D+00 -2.2304030400806D-01 -2.0240692223840D-02
185  1.8400000000000D+00 -2.3429677063011D-01 -1.4064523816828D-02
186  1.8500000000000D+00 -2.4106401596623D-01 -8.5583359793037D-03
187  1.8600000000000D+00 -2.4320308303382D-01 -3.7609436128833D-03
188  1.8700000000000D+00 -2.4059101877782D-01  2.9233575315898D-04
189  1.8800000000000D+00 -2.3312160014032D-01  3.5698395533586D-03
190  1.8900000000000D+00 -2.2068908526517D-01  6.0422245144376D-03
191  1.9000000000000D+00 -2.0300530794556D-01  7.6664008480518D-03
192  1.9100000000000D+00 -1.8067785891400D-01  8.4807868097985D-03
193  1.9200000000000D+00 -1.5498050946903D-01  8.5808015669019D-03
194  1.9300000000000D+00 -1.2211741603374D-01  7.6303966135851D-03
195  1.9400000000000D+00 -7.7936920832016D-02  5.2740052492115D-03
196  1.9500000000000D+00 -3.0102286716651D-02  2.1514153872746D-03
197  1.9600000000000D+00  2.9058868005749D-03 -1.7593404719217D-04
198  1.9700000000000D+00  8.8875658028188D-03 -6.1765525083758D-04
199  1.9800000000000D+00  1.7249837929715D-03 -1.2212587535362D-04
200  1.9900000000000D+00 -2.0717128084469D-03  1.3963845861806D-04
201  2.0000000000000D+00 -1.3691810485060D-03  9.2811243689805D-05
202  2.0100000000000D+00  1.7171866943423D-04 -1.0750832111104D-05
203  2.0200000000000D+00  2.6558304484678D-04 -1.6666934821830D-05
204  2.0300000000000D+00  1.2201451991775D-08 -4.8030103146972D-09
205  2.0400000000000D+00  2.5760042139012D-07 -1.0140247913454D-07
206  2.0500000000000D+00  1.2298871059690D-07 -4.8413586021273D-08
207  2.0600000000000D+00  0.0000000000000D+00  0.0000000000000D+00
208  2.0700000000000D+00  0.0000000000000D+00  0.0000000000000D+00
209  2.0800000000000D+00  0.0000000000000D+00  0.0000000000000D+00
210  2.0900000000000D+00  0.0000000000000D+00  0.0000000000000D+00
211  2.1000000000000D+00  0.0000000000000D+00  0.0000000000000D+00
212  2.1100000000000D+00  0.0000000000000D+00  0.0000000000000D+00
213  2.1200000000000D+00  0.0000000000000D+00  0.0000000000000D+00
214  2.1300000000000D+00  0.0000000000000D+00  0.0000000000000D+00
215  2.1400000000000D+00  0.0000000000000D+00  0.0000000000000D+00
216  2.1500000000000D+00  0.0000000000000D+00  0.0000000000000D+00
217  2.1600000000000D+00  0.0000000000000D+00  0.0000000000000D+00
218  2.1700000000000D+00  0.0000000000000D+00  0.0000000000000D+00
219  2.1800000000000D+00  0.0000000000000D+00  0.0000000000000D+00
220  2.1900000000000D+00  0.0000000000000D+00  0.0000000000000D+00
221  2.2000000000000D+00  0.0000000000000D+00  0.0000000000000D+00
222  2.2100000000000D+00  0.0000000000000D+00  0.0000000000000D+00
223  2.2200000000000D+00  0.0000000000000D+00  0.0000000000000D+00
224  2.2300000000000D+00  0.0000000000000D+00  0.0000000000000D+00
225  2.2400000000000D+00  0.0000000000000D+00  0.0000000000000D+00
226  2.2500000000000D+00  0.0000000000000D+00  0.0000000000000D+00
227  2.2600000000000D+00  0.0000000000000D+00  0.0000000000000D+00
228  2.2700000000000D+00  0.0000000000000D+00  0.0000000000000D+00
229  2.2800000000000D+00  0.0000000000000D+00  0.0000000000000D+00
230  2.2900000000000D+00  0.0000000000000D+00  0.0000000000000D+00
231  2.3000000000000D+00  0.0000000000000D+00  0.0000000000000D+00
232  2.3100000000000D+00  0.0000000000000D+00  0.0000000000000D+00
233  2.3200000000000D+00  0.0000000000000D+00  0.0000000000000D+00
234  2.3300000000000D+00  0.0000000000000D+00  0.0000000000000D+00
235  2.3400000000000D+00  0.0000000000000D+00  0.0000000000000D+00
236  2.3500000000000D+00  0.0000000000000D+00  0.0000000000000D+00
237  2.3600000000000D+00  0.0000000000000D+00  0.0000000000000D+00
238  2.3700000000000D+00  0.0000000000000D+00  0.0000000000000D+00
239  2.3800000000000D+00  0.0000000000000D+00  0.0000000000000D+00
240  2.3900000000000D+00  0.0000000000000D+00  0.0000000000000D+00
241  2.4000000000000D+00  0.0000000000000D+00  0.0000000000000D+00
242  2.4100000000000D+00  0.0000000000000D+00  0.0000000000000D+00
243  2.4200000000000D+00  0.0000000000000D+00  0.0000000000000D+00
244  2.4300000000000D+00  0.0000000000000D+00  0.0000000000000D+00
245  2.4400000000000D+00  0.0000000000000D+00  0.0000000000000D+00
246  2.4500000000000D+00  0.0000000000000D+00  0.0000000000000D+00
247  2.4600000000000D+00  0.0000000000000D+00  0.0000000000000D+00
248  2.4700000000000D+00  0.0000000000000D+00  0.0000000000000D+00
249  2.4800000000000D+00  0.0000000000000D+00  0.0000000000000D+00
250  2.4900000000000D+00  0.0000000000000D+00  0.0000000000000D+00
251  2.5000000000000D+00  0.0000000000000D+00  0.0000000000000D+00
252  2.5100000000000D+00  0.0000000000000D+00  0.0000000000000D+00
253  2.5200000000000D+00  0.0000000000000D+00  0.0000000000000D+00
254  2.5300000000000D+00  0.0000000000000D+00  0.0000000000000D+00
255  2.5400000000000D+00  0.0000000000000D+00  0.0000000000000D+00
256  2.5500000000000D+00  0.0000000000000D+00  0.0000000000000D+00
257  2.5600000000000D+00  0.0000000000000D+00  0.0000000000000D+00
258  2.5700000000000D+00  0.0000000000000D+00  0.0000000000000D+00
259  2.5800000000000D+00  0.0000000000000D+00  0.0000000000000D+00
260  2.5900000000000D+00  0.0000000000000D+00  0.0000000000000D+00
261  2.6000000000000D+00  0.0000000000000D+00  0.0000000000000D+00
262  2.6100000000000D+00  0.0000000000000D+00  0.0000000000000D+00
263  2.6200000000000D+00  0.0000000000000D+00  0.0000000000000D+00
264  2.6300000000000D+00  0.0000000000000D+00  0.0000000000000D+00
265  2.6400000000000D+00  0.0000000000000D+00  0.0000000000000D+00
266  2.6500000000000D+00  0.0000000000000D+00  0.0000000000000D+00
267  2.6600000000000D+00  0.0000000000000D+00  0.0000000000000D+00
268  2.6700000000000D+00  0.0000000000000D+00  0.0000000000000D+00
269  2.6800000000000D+00  0.0000000000000D+00  0.0000000000000D+00
270  2.6900000000000D+00  0.0000000000000D+00  0.0000000000000D+00
271  2.7000000000000D+00  0.0000000000000D+00  0.0000000000000D+00
272  2.7100000000000D+00  0.0000000000000D+00  0.0000000000000D+00
273  2.7200000000000D+00  0.0000000000000D+00  0.0000000000000D+00
274  2.7300000000000D+00  0.0000000000000D+00  0.0000000000000D+00
275  2.7400000000000D+00  0.0000000000000D+00  0.0000000000000D+00
276  2.7500000000000D+00  0.0000000000000D+00  0.0000000000000D+00
277  2.7600000000000D+00  0.0000000000000D+00  0.0000000000000D+00
278  2.7700000000000D+00  0.0000000000000D+00  0.0000000000000D+00
279  2.7800000000000D+00  0.0000000000000D+00  0.0000000000000D+00
280  2.7900000000000D+00  0.0000000000000D+00  0.0000000000000D+00
281  2.8000000000000D+00  0.0000000000000D+00  0.0000000000000D+00
282  2.8100000000000D+00  0.0000000000000D+00  0.0000000000000D+00
283  2.8200000000000D+00  0.0000000000000D+00  0.0000000000000D+00
284  2.8300000000000D+00  0.0000000000000D+00  0.0000000000000D+00
285  2.8400000000000D+00  0.0000000000000D+00  0.0000000000000D+00
286  2.8500000000000D+00  0.0000000000000D+00  0.0000000000000D+00
287  2.8600000000000D+00  0.0000000000000D+00  0.0000000000000D+00
288  2.8700000000000D+00  0.0000000000000D+00  0.0000000000000D+00
289  2.8800000000000D+00  0.0000000000000D+00  0.0000000000000D+00
290  2.8900000000000D+00  0.0000000000000D+00  0.0000000000000D+00
291  2.9000000000000D+00  0.0000000000000D+00  0.0000000000000D+00
292  2.9100000000000D+00  0.0000000000000D+00  0.0000000000000D+00
293  2.9200000000000D+00  0.0000000000000D+00  0.0000000000000D+00
294  2.9300000000000D+00  0.0000000000000D+00  0.0000000000000D+00
295  2.9400000000000D+00  0.0000000000000D+00  0.0000000000000D+00
296  2.9500000000000D+00  0.0000000000000D+00  0.0000000000000D+00
297  2.9600000000000D+00  0.0000000000000D+00  0.0000000000000D+00
298  2.9700000000000D+00  0.0000000000000D+00  0.0000000000000D+00
299  2.9800000000000D+00  0.0000000000000D+00  0.0000000000000D+00
300  2.9900000000000D+00  0.0000000000000D+00  0.0000000000000D+00
301  3.0000000000000D+00  0.0000000000000D+00  0.0000000000000D+00
302  3.0100000000000D+00  0.0000000000000D+00  0.0000000000000D+00
303  3.0200000000000D+00  0.0000000000000D+00  0.0000000000000D+00
304  3.0300000000000D+00  0.0000000000000D+00  0.0000000000000D+00
305  3.0400000000000D+00  0.0000000000000D+00  0.0000000000000D+00
306  3.0500000000000D+00  0.0000000000000D+00  0.0000000000000D+00
307  3.0600000000000D+00  0.0000000000000D+00  0.0000000000000D+00
308  3.0700000000000D+00  0.0000000000000D+00  0.0000000000000D+00
309  3.0800000000000D+00  0.0000000000000D+00  0.0000000000000D+00
310  3.0900000000000D+00  0.0000000000000D+00  0.0000000000000D+00
311  3.1000000000000D+00  0.0000000000000D+00  0.0000000000000D+00
312  3.1100000000000D+00  0.0000000000000D+00  0.0000000000000D+00
313  3.1200000000000D+00  0.0000000000000D+00  0.0000000000000D+00
314  3.1300000000000D+00  0.0000000000000D+00  0.0000000000000D+00
315  3.1400000000000D+00  0.0000000000000D+00  0.0000000000000D+00
316  3.1500000000000D+00  0.0000000000000D+00  0.0000000000000D+00
317  3.1600000000000D+00  0.0000000000000D+00  0.0000000000000D+00
318  3.1700000000000D+00  0.0000000000000D+00  0.0000000000000D+00
319  3.1800000000000D+00  0.0000000000000D+00  0.0000000000000D+00
320  3.1900000000000D+00  0.0000000000000D+00  0.0000000000000D+00
321  3.2000000000000D+00  0.0000000000000D+00  0.0000000000000D+00
322  3.2100000000000D+00  0.0000000000000D+00  0.0000000000000D+00
323  3.2200000000000D+00  0.0000000000000D+00  0.0000000000000D+00
324  3.2300000000000D+00  0.0000000000000D+00  0.0000000000000D+00
325  3.2400000000000D+00  0.0000000000000D+00  0.0000000000000D+00
326  3.2500000000000D+00  0.0000000000000D+00  0.0000000000000D+00
327  3.2600000000000D+00  0.0000000000000D+00  0.0000000000000D+00
328  3.2700000000000D+00  0.0000000000000D+00  0.0000000000000D+00
329  3.2800000000000D+00  0.0000000000000D+00  0.0000000000000D+00
330  3.2900000000000D+00  0.0000000000000D+00  0.0000000000000D+00
331  3.3000000000000D+00  0.0000000000000D+00  0.0000000000000D+00
332  3.3100000000000D+00  0.0000000000000D+00  0.0000000000000D+00
333  3.3200000000000D+00  0.0000000000000D+00  0.0000000000000D+00
334  3.3300000000000D+00  0.0000000000000D+00  0.0000000000000D+00
335  3.3400000000000D+00  0.0000000000000D+00  0.0000000000000D+00
336  3.3500000000000D+00  0.0000000000000D+00  0.0000000000000D+00
337  3.3600000000000D+00  0.0000000000000D+00  0.0000000000000D+00
338  3.3700000000000D+00  0.0000000000000D+00  0.0000000000000D+00
339  3.3800000000000D+00  0.0000000000000D+00  0.0000000000000D+00
340  3.3900000000000D+00  0.0000000000000D+00  0.0000000000000D+00
341  3.4000000000000D+00  0.0000000000000D+00  0.0000000000000D+00
342  3.4100000000000D+00  0.0000000000000D+00  0.0000000000000D+00
343  3.4200000000000D+00  0.0000000000000D+00  0.0000000000000D+00
344  3.4300000000000D+00  0.0000000000000D+00  0.0000000000000D+00
345  3.4400000000000D+00  0.0000000000000D+00  0.0000000000000D+00
346  3.4500000000000D+00  0.0000000000000D+00  0.0000000000000D+00
347  3.4600000000000D+00  0.0000000000000D+00  0.0000000000000D+00
348  3.4700000000000D+00  0.0000000000000D+00  0.0000000000000D+00
349  3.4800000000000D+00  0.0000000000000D+00  0.0000000000000D+00
350  3.4900000000000D+00  0.0000000000000D+00  0.0000000000000D+00
351  3.5000000000000D+00  0.0000000000000D+00  0.0000000000000D+00
352  3.5100000000000D+00  0.0000000000000D+00  0.0000000000000D+00
353  3.5200000000000D+00  0.0000000000000D+00  0.0000000000000D+00
354  3.5300000000000D+00  0.0000000000000D+00  0.0000000000000D+00
355  3.5400000000000D+00  0.0000000000000D+00  0.0000000000000D+00
356  3.5500000000000D+00  0.0000000000000D+00  0.0000000000000D+00
357  3.5600000000000D+00  0.0000000000000D+00  0.0000000000000D+00
358  3.5700000000000D+00  0.0000000000000D+00  0.0000000000000D+00
359  3.5800000000000D+00  0.0000000000000D+00  0.0000000000000D+00
360  3.5900000000000D+00  0.0000000000000D+00  0.0000000000000D+00
361  3.6000000000000D+00  0.0000000000000D+00  0.0000000000000D+00
362  3.6100000000000D+00  0.0000000000000D+00  0.0000000000000D+00
363  3.6200000000000D+00  0.0000000000000D+00  0.0000000000000D+00
364  3.6300000000000D+00  0.0000000000000D+00  0.0000000000000D+00
365  3.6400000000000D+00  0.0000000000000D+00  0.0000000000000D+00
366  3.6500000000000D+00  0.0000000000000D+00  0.0000000000000D+00
367  3.6600000000000D+00  0.0000000000000D+00  0.0000000000000D+00
368  3.6700000000000D+00  0.0000000000000D+00  0.0000000000000D+00
369  3.6800000000000D+00  0.0000000000000D+00  0.0000000000000D+00
370  3.6900000000000D+00  0.0000000000000D+00  0.0000000000000D+00
371  3.7000000000000D+00  0.0000000000000D+00  0.0000000000000D+00
372  3.7100000000000D+00  0.0000000000000D+00  0.0000000000000D+00
373  3.7200000000000D+00  0.0000000000000D+00  0.0000000000000D+00
374  3.7300000000000D+00  0.0000000000000D+00  0.0000000000000D+00
375  3.7400000000000D+00  0.0000000000000D+00  0.0000000000000D+00
376  3.7500000000000D+00  0.0000000000000D+00  0.0000000000000D+00
377  3.7600000000000D+00  0.0000000000000D+00  0.0000000000000D+00
378  3.7700000000000D+00  0.0000000000000D+00  0.0000000000000D+00
379  3.7800000000000D+00  0.0000000000000D+00  0.0000000000000D+00
380  3.7900000000000D+00  0.0000000000000D+00  0.0000000000000D+00
381  3.8000000000000D+00  0.0000000000000D+00  0.0000000000000D+00
382  3.8100000000000D+00  0.0000000000000D+00  0.0000000000000D+00
383  3.8200000000000D+00  0.0000000000000D+00  0.0000000000000D+00
384  3.8300000000000D+00  0.0000000000000D+00  0.0000000000000D+00
385  3.8400000000000D+00  0.0000000000000D+00  0.0000000000000D+00
386  3.8500000000000D+00  0.0000000000000D+00  0.0000000000000D+00
387  3.8600000000000D+00  0.0000000000000D+00  0.0000000000000D+00
388  3.8700000000000D+00  0.0000000000000D+00  0.0000000000000D+00
389  3.8800000000000D+00  0.0000000000000D+00  0.0000000000000D+00
390  3.8900000000000D+00  0.0000000000000D+00  0.0000000000000D+00
391  3.9000000000000D+00  0.0000000000000D+00  0.0000000000000D+00
392  3.9100000000000D+00  0.0000000000000D+00  0.0000000000000D+00
393  3.9200000000000D+00  0.0000000000000D+00  0.0000000000000D+00
394  3.9300000000000D+00  0.0000000000000D+00  0.0000000000000D+00
395  3.9400000000000D+00  0.0000000000000D+00  0.0000000000000D+00
396  3.9500000000000D+00  0.0000000000000D+00  0.0000000000000D+00
397  3.9600000000000D+00  0.0000000000000D+00  0.0000000000000D+00
398  3.9700000000000D+00  0.0000000000000D+00  0.0000000000000D+00
399  3.9800000000000D+00  0.0000000000000D+00  0.0000000000000D+00
400  3.9900000000000D+00  0.0000000000000D+00  0.0000000000000D+00
401  4.0000000000000D+00  0.0000000000000D+00  0.0000000000000D+00
402  4.0100000000000D+00  0.0000000000000D+00  0.0000000000000D+00
403  4.0200000000000D+00  0.0000000000000D+00  0.0000000000000D+00
404  4.0300000000000D+00  0.0000000000000D+00  0.0000000000000D+00
405  4.0400000000000D+00  0.0000000000000D+00  0.0000000000000D+00
406  4.0500000000000D+00  0.0000000000000D+00  0.0000000000000D+00
407  4.0600000000000D+00  0.0000000000000D+00  0.0000000000000D+00
408  4.0700000000000D+00  0.0000000000000D+00  0.0000000000000D+00
409  4.0800000000000D+00  0.0000000000000D+00  0.0000000000000D+00
410  4.0900000000000D+00  0.0000000000000D+00  0.0000000000000D+00
411  4.1000000000000D+00  0.0000000000000D+00  0.0000000000000D+00
412  4.1100000000000D+00  0.0000000000000D+00  0.0000000000000D+00
413  4.1200000000000D+00  0.0000000000000D+00  0.0000000000000D+00
414  4.1300000000000D+00  0.0000000000000D+00  0.0000000000000D+00
415  4.1400000000000D+00  0.0000000000000D+00  0.0000000000000D+00
416  4.1500000000000D+00  0.0000000000000D+00  0.0000000000000D+00
417  4.1600000000000D+00  0.0000000000000D+00  0.0000000000000D+00
418  4.1700000000000D+00  0.0000000000000D+00  0.0000000000000D+00
419  4.1800000000000D+00  0.0000000000000D+00  0.0000000000000D+00
420  4.1900000000000D+00  0.0000000000000D+00  0.0000000000000D+00
421  4.2000000000000D+00  0.0000000000000D+00  0.0000000000000D+00
422  4.2100000000000D+00  0.0000000000000D+00  0.0000000000000D+00
423  4.2200000000000D+00  0.0000000000000D+00  0.0000000000000D+00
424  4.2300000000000D+00  0.0000000000000D+00  0.0000000000000D+00
425  4.2400000000000D+00  0.0000000000000D+00  0.0000000000000D+00
426  4.2500000000000D+00  0.0000000000000D+00  0.0000000000000D+00
427  4.2600000000000D+00  0.0000000000000D+00  0.0000000000000D+00
428  4.2700000000000D+00  0.0000000000000D+00  0.0000000000000D+00
429  4.2800000000000D+00  0.0000000000000D+00  0.0000000000000D+00
430  4.2900000000000D+00  0.0000000000000D+00  0.0000000000000D+00
431  4.3000000000000D+00  0.0000000000000D+00  0.0000000000000D+00
432  4.3100000000000D+00  0.0000000000000D+00  0.0000000000000D+00
433  4.3200000000000D+00  0.0000000000000D+00  0.0000000000000D+00
434  4.3300000000000D+00  0.0000000000000D+00  0.0000000000000D+00
435  4.3400000000000D+00  0.0000000000000D+00  0.0000000000000D+00
436  4.3500000000000D+00  0.0000000000000D+00  0.0000000000000D+00
437  4.3600000000000D+00  0.0000000000000D+00  0.0000000000000D+00
438  4.3700000000000D+00  0.0000000000000D+00  0.0000000000000D+00
439  4.3800000000000D+00  0.0000000000000D+00  0.0000000000000D+00
440  4.3900000000000D+00  0.0000000000000D+00  0.0000000000000D+00
441  4.4000000000000D+00  0.0000000000000D+00  0.0000000000000D+00
442  4.4100000000000D+00  0.0000000000000D+00  0.0000000000000D+00
443  4.4200000000000D+00  0.0000000000000D+00  0.0000000000000D+00