Be    ONCVPSP-3.3.0  r_core=   1.20427   1.05618
4.0000      4.0000      180429    zatom,zion,pspd
8 -116133   1     4   400     0    pspcod,pspxc,lmax,lloc,mmax,r2well
3.99000000  0.00000000  0.00000000    rchrg fchrg qchrg
2     2     0     0    nproj
3     1           extension_switch
3     0     0    nprojso
0                        -9.5834627923410D+00 -3.3192289711331D+00
1  0.0000000000000D+00 -1.4359724520574D-10 -2.3892321454611D-10
2  1.0000000000000D-02  1.2186718321512D-01 -4.8630766801457D-02
3  2.0000000000000D-02  2.4322148969580D-01 -9.6792646442770D-02
4  3.0000000000000D-02  3.6355266115315D-01 -1.4401959981183D-01
5  4.0000000000000D-02  4.8235566319519D-01 -1.8985127286907D-01
6  5.0000000000000D-02  5.9913326482450D-01 -2.3383581155853D-01
7  6.0000000000000D-02  7.1339857909205D-01 -2.7553264338558D-01
8  7.0000000000000D-02  8.2467755212304D-01 -3.1451521425285D-01
9  8.0000000000000D-02  9.3251138787408D-01 -3.5037366890712D-01
10  9.0000000000000D-02  1.0364588961645D+00 -3.8271746307058D-01
11  1.0000000000000D-01  1.1360987517499D+00 -4.1117789502263D-01
12  1.1000000000000D-01  1.2310316524781D+00 -4.3541054407774D-01
13  1.2000000000000D-01  1.3208823648844D+00 -4.5509760308623D-01
14  1.3000000000000D-01  1.4053016459554D+00 -4.6995009178636D-01
15  1.4000000000000D-01  1.4839680302146D+00 -4.7970993757485D-01
16  1.5000000000000D-01  1.5565894717651D+00 -4.8415191005916D-01
17  1.6000000000000D-01  1.6229048314685D+00 -4.8308539562661D-01
18  1.7000000000000D-01  1.6826852000451D+00 -4.7635599823181D-01
19  1.8000000000000D-01  1.7357350485536D+00 -4.6384695268390D-01
20  1.9000000000000D-01  1.7818931984467D+00 -4.4548033692481D-01
21  2.0000000000000D-01  1.8210336042086D+00 -4.2121807014672D-01
22  2.1000000000000D-01  1.8530659424566D+00 -3.9106268411340D-01
23  2.2000000000000D-01  1.8779360023345D+00 -3.5505785574015D-01
24  2.3000000000000D-01  1.8956258730390D+00 -3.1328868985882D-01
25  2.4000000000000D-01  1.9061539253971D+00 -2.6588174215512D-01
26  2.5000000000000D-01  1.9095745855511D+00 -2.1300477351966D-01
27  2.6000000000000D-01  1.9059779000054D+00 -1.5486622850175D-01
28  2.7000000000000D-01  1.8954888925350D+00 -9.1714432193803D-02
29  2.8000000000000D-01  1.8782667147498D+00 -2.3836501698228D-02
30  2.9000000000000D-01  1.8545035934361D+00  4.8443029672207D-02
31  3.0000000000000D-01  1.8244235791580D+00  1.2476387514710D-01
32  3.1000000000000D-01  1.7882811019754D+00  2.0473194158328D-01
33  3.2000000000000D-01  1.7463593415224D+00  2.8792155582613D-01
34  3.3000000000000D-01  1.6989684200695D+00  3.7387796275380D-01
35  3.4000000000000D-01  1.6464434285604D+00  4.6212008479522D-01
36  3.5000000000000D-01  1.5891422969530D+00  5.5214353004699D-01
37  3.6000000000000D-01  1.5274435214854D+00  6.4342383343021D-01
38  3.7000000000000D-01  1.4617437627356D+00  7.3541991265697D-01
39  3.8000000000000D-01  1.3924553295077D+00  8.2757771815234D-01
40  3.9000000000000D-01  1.3200035646743D+00  9.1933405353572D-01
41  4.0000000000000D-01  1.2448241500910D+00  1.0101205408407D+00
42  4.1000000000000D-01  1.1673603485892D+00  1.0993677023803D+00
43  4.2000000000000D-01  1.0880602018115D+00  1.1865091290812D+00
44  4.3000000000000D-01  1.0073737032863D+00  1.2709857032446D+00
45  4.4000000000000D-01  9.2574996662211D-01  1.3522498420857D+00
46  4.5000000000000D-01  8.4363440903477D-01  1.4297697270747D+00
47  4.6000000000000D-01  7.6146597058882D-01  1.5030334830900D+00
48  4.7000000000000D-01  6.7967438953777D-01  1.5715532707156D+00
49  4.8000000000000D-01  5.9867755397184D-01  1.6348692546962D+00
50  4.9000000000000D-01  5.1887894963216D-01  1.6925534116156D+00
51  5.0000000000000D-01  4.4066522321859D-01  1.7442131403094D+00
52  5.1000000000000D-01  3.6440387980787D-01  1.7894946393623D+00
53  5.2000000000000D-01  2.9044113211079D-01  1.8280860172809D+00
54  5.3000000000000D-01  2.1909991823432D-01  1.8597201025760D+00
55  5.4000000000000D-01  1.5067810338686D-01  1.8841769230202D+00
56  5.5000000000000D-01  8.5446879573755D-02  1.9012858257710D+00
57  5.6000000000000D-01  2.3649375793439D-02  1.9109272128281D+00
58  5.7000000000000D-01 -3.4500510432385D-02  1.9130338694317D+00
59  5.8000000000000D-01 -8.8819051161936D-02  1.9075918664562D+00
60  5.9000000000000D-01 -1.3915338864462D-01  1.8946410215941D+00
61  6.0000000000000D-01 -1.8538199331755D-01  1.8742749081226D+00
62  6.1000000000000D-01 -2.2741487613774D-01  1.8466404042527D+00
63  6.2000000000000D-01 -2.6519355432636D-01  1.8119367804410D+00
64  6.3000000000000D-01 -2.9869077176907D-01  1.7704143265658D+00
65  6.4000000000000D-01 -3.2790997747908D-01  1.7223725254337D+00
66  6.5000000000000D-01 -3.5288456770345D-01  1.6681577837247D+00
67  6.6000000000000D-01 -3.7367689938069D-01  1.6081607360618D+00
68  6.7000000000000D-01 -3.9037708472787D-01  1.5428131423992D+00
69  6.8000000000000D-01 -4.0310157874676D-01  1.4725844033261D+00
70  6.9000000000000D-01 -4.1199157333273D-01  1.3979777220745D+00
71  7.0000000000000D-01 -4.1721121345446D-01  1.3195259459882D+00
72  7.1000000000000D-01 -4.1894565251439D-01  1.2377871238963D+00
73  7.2000000000000D-01 -4.1739896548867D-01  1.1533398191935D+00
74  7.3000000000000D-01 -4.1279193975102D-01  1.0667782214027D+00
75  7.4000000000000D-01 -4.0535976460497D-01  9.7870710155976D-01
76  7.5000000000000D-01 -3.9534964146219D-01  8.8973665887366D-01
77  7.6000000000000D-01 -3.8301833730010D-01  8.0047730773651D-01
78  7.7000000000000D-01 -3.6862970450465D-01  7.1153445528143D-01
79  7.8000000000000D-01 -3.5245219043834D-01  6.2350332026448D-01
80  7.9000000000000D-01 -3.3475636007401D-01  5.3696384408764D-01
81  8.0000000000000D-01 -3.1581245479293D-01  4.5247574426188D-01
82  8.1000000000000D-01 -2.9588800996506D-01  3.7057375953405D-01
83  8.2000000000000D-01 -2.7524555321240D-01  2.9176313427253D-01
84  8.3000000000000D-01 -2.5414040430859D-01  2.1651538753490D-01
85  8.4000000000000D-01 -2.3281859649937D-01  1.4526440954349D-01
86  8.5000000000000D-01 -2.1151493764851D-01  7.8402925095768D-02
87  8.6000000000000D-01 -1.9045122803754D-01  1.6279359765415D-02
88  8.7000000000000D-01 -1.6983464989038D-01 -4.0804859356720D-02
89  8.8000000000000D-01 -1.4985634177400D-01 -9.2597541133447D-02
90  8.9000000000000D-01 -1.3069016896388D-01 -1.3889748366403D-01
91  9.0000000000000D-01 -1.1249169868049D-01 -1.7955572612329D-01
92  9.1000000000000D-01 -9.5397386823688D-02 -2.1447628728576D-01
93  9.2000000000000D-01 -7.9523980480566D-02 -2.4361638442927D-01
94  9.3000000000000D-01 -6.4968140125450D-02 -2.6698612496809D-01
95  9.4000000000000D-01 -5.1806273871844D-02 -2.8464770108111D-01
96  9.5000000000000D-01 -4.0094558102703D-02 -2.9671417193409D-01
97  9.6000000000000D-01 -2.9869325172236D-02 -3.0334722200512D-01
98  9.7000000000000D-01 -2.1146632281852D-02 -3.0475795860229D-01
99  9.8000000000000D-01 -1.3917102509463D-02 -3.0122401032250D-01
100  9.9000000000000D-01 -8.1384577530689D-03 -2.9311377126742D-01
101  1.0000000000000D+00 -3.7336995983713D-03 -2.8089081230697D-01
102  1.0100000000000D+00 -5.9179520055112D-04 -2.6510991432601D-01
103  1.0200000000000D+00  1.4298990904503D-03 -2.4640773131647D-01
104  1.0300000000000D+00  2.5006367605073D-03 -2.2548542793788D-01
105  1.0400000000000D+00  2.8086493793839D-03 -2.0308336511994D-01
106  1.0500000000000D+00  2.5511351268511D-03 -1.7994885066136D-01
107  1.0600000000000D+00  1.9226273825650D-03 -1.5679955442336D-01
108  1.0700000000000D+00  1.1029735947163D-03 -1.3428658124343D-01
109  1.0800000000000D+00  2.4642281992685D-04 -1.1296191112292D-01
110  1.0900000000000D+00 -5.2671974956289D-04 -9.3254638677889D-02
111  1.1000000000000D+00 -1.1346900850880D-03 -7.5459448911039D-02
112  1.1100000000000D+00 -1.5345741411098D-03 -5.9738648014499D-02
113  1.1200000000000D+00 -1.7185958335818D-03 -4.6136540666048D-02
114  1.1300000000000D+00 -1.7072674776960D-03 -3.4603089672241D-02
115  1.1400000000000D+00 -1.5407057865132D-03 -2.5022588942538D-02
116  1.1500000000000D+00 -1.2696659791140D-03 -1.7242442781541D-02
117  1.1600000000000D+00 -9.4754602393874D-04 -1.1098241946727D-02
118  1.1700000000000D+00 -6.2453447726769D-04 -6.4346314926836D-03
119  1.1800000000000D+00 -3.4071189002143D-04 -3.0975137953749D-03
120  1.1900000000000D+00 -1.3491519592198D-04 -1.0035978253286D-03
121  1.2000000000000D+00 -3.4454706465450D-05 -7.0819120748491D-05
122  1.2100000000000D+00 -3.5348741778905D-06  9.1702373652161D-05
123  1.2200000000000D+00 -1.1817668031691D-08 -8.2455553471749D-06
124  1.2300000000000D+00 -2.2200682093140D-07 -1.3334593523866D-05
125  1.2400000000000D+00 -4.5611204223897D-08  4.5732301145953D-06
126  1.2500000000000D+00  1.9642617160900D-08 -7.9693441363535D-08
127  1.2600000000000D+00  2.6153906196964D-08 -1.0611084932634D-07
128  1.2700000000000D+00  0.0000000000000D+00  0.0000000000000D+00
129  1.2800000000000D+00  0.0000000000000D+00  0.0000000000000D+00
130  1.2900000000000D+00  0.0000000000000D+00  0.0000000000000D+00
131  1.3000000000000D+00  0.0000000000000D+00  0.0000000000000D+00
132  1.3100000000000D+00  0.0000000000000D+00  0.0000000000000D+00
133  1.3200000000000D+00  0.0000000000000D+00  0.0000000000000D+00
134  1.3300000000000D+00  0.0000000000000D+00  0.0000000000000D+00
135  1.3400000000000D+00  0.0000000000000D+00  0.0000000000000D+00
136  1.3500000000000D+00  0.0000000000000D+00  0.0000000000000D+00
137  1.3600000000000D+00  0.0000000000000D+00  0.0000000000000D+00
138  1.3700000000000D+00  0.0000000000000D+00  0.0000000000000D+00
139  1.3800000000000D+00  0.0000000000000D+00  0.0000000000000D+00
140  1.3900000000000D+00  0.0000000000000D+00  0.0000000000000D+00
141  1.4000000000000D+00  0.0000000000000D+00  0.0000000000000D+00
142  1.4100000000000D+00  0.0000000000000D+00  0.0000000000000D+00
143  1.4200000000000D+00  0.0000000000000D+00  0.0000000000000D+00
144  1.4300000000000D+00  0.0000000000000D+00  0.0000000000000D+00
145  1.4400000000000D+00  0.0000000000000D+00  0.0000000000000D+00
146  1.4500000000000D+00  0.0000000000000D+00  0.0000000000000D+00
147  1.4600000000000D+00  0.0000000000000D+00  0.0000000000000D+00
148  1.4700000000000D+00  0.0000000000000D+00  0.0000000000000D+00
149  1.4800000000000D+00  0.0000000000000D+00  0.0000000000000D+00
150  1.4900000000000D+00  0.0000000000000D+00  0.0000000000000D+00
151  1.5000000000000D+00  0.0000000000000D+00  0.0000000000000D+00
152  1.5100000000000D+00  0.0000000000000D+00  0.0000000000000D+00
153  1.5200000000000D+00  0.0000000000000D+00  0.0000000000000D+00
154  1.5300000000000D+00  0.0000000000000D+00  0.0000000000000D+00
155  1.5400000000000D+00  0.0000000000000D+00  0.0000000000000D+00
156  1.5500000000000D+00  0.0000000000000D+00  0.0000000000000D+00
157  1.5600000000000D+00  0.0000000000000D+00  0.0000000000000D+00
158  1.5700000000000D+00  0.0000000000000D+00  0.0000000000000D+00
159  1.5800000000000D+00  0.0000000000000D+00  0.0000000000000D+00
160  1.5900000000000D+00  0.0000000000000D+00  0.0000000000000D+00
161  1.6000000000000D+00  0.0000000000000D+00  0.0000000000000D+00
162  1.6100000000000D+00  0.0000000000000D+00  0.0000000000000D+00
163  1.6200000000000D+00  0.0000000000000D+00  0.0000000000000D+00
164  1.6300000000000D+00  0.0000000000000D+00  0.0000000000000D+00
165  1.6400000000000D+00  0.0000000000000D+00  0.0000000000000D+00
166  1.6500000000000D+00  0.0000000000000D+00  0.0000000000000D+00
167  1.6600000000000D+00  0.0000000000000D+00  0.0000000000000D+00
168  1.6700000000000D+00  0.0000000000000D+00  0.0000000000000D+00
169  1.6800000000000D+00  0.0000000000000D+00  0.0000000000000D+00
170  1.6900000000000D+00  0.0000000000000D+00  0.0000000000000D+00
171  1.7000000000000D+00  0.0000000000000D+00  0.0000000000000D+00
172  1.7100000000000D+00  0.0000000000000D+00  0.0000000000000D+00
173  1.7200000000000D+00  0.0000000000000D+00  0.0000000000000D+00
174  1.7300000000000D+00  0.0000000000000D+00  0.0000000000000D+00
175  1.7400000000000D+00  0.0000000000000D+00  0.0000000000000D+00
176  1.7500000000000D+00  0.0000000000000D+00  0.0000000000000D+00
177  1.7600000000000D+00  0.0000000000000D+00  0.0000000000000D+00
178  1.7700000000000D+00  0.0000000000000D+00  0.0000000000000D+00
179  1.7800000000000D+00  0.0000000000000D+00  0.0000000000000D+00
180  1.7900000000000D+00  0.0000000000000D+00  0.0000000000000D+00
181  1.8000000000000D+00  0.0000000000000D+00  0.0000000000000D+00
182  1.8100000000000D+00  0.0000000000000D+00  0.0000000000000D+00
183  1.8200000000000D+00  0.0000000000000D+00  0.0000000000000D+00
184  1.8300000000000D+00  0.0000000000000D+00  0.0000000000000D+00
185  1.8400000000000D+00  0.0000000000000D+00  0.0000000000000D+00
186  1.8500000000000D+00  0.0000000000000D+00  0.0000000000000D+00
187  1.8600000000000D+00  0.0000000000000D+00  0.0000000000000D+00
188  1.8700000000000D+00  0.0000000000000D+00  0.0000000000000D+00
189  1.8800000000000D+00  0.0000000000000D+00  0.0000000000000D+00
190  1.8900000000000D+00  0.0000000000000D+00  0.0000000000000D+00
191  1.9000000000000D+00  0.0000000000000D+00  0.0000000000000D+00
192  1.9100000000000D+00  0.0000000000000D+00  0.0000000000000D+00
193  1.9200000000000D+00  0.0000000000000D+00  0.0000000000000D+00
194  1.9300000000000D+00  0.0000000000000D+00  0.0000000000000D+00
195  1.9400000000000D+00  0.0000000000000D+00  0.0000000000000D+00
196  1.9500000000000D+00  0.0000000000000D+00  0.0000000000000D+00
197  1.9600000000000D+00  0.0000000000000D+00  0.0000000000000D+00
198  1.9700000000000D+00  0.0000000000000D+00  0.0000000000000D+00
199  1.9800000000000D+00  0.0000000000000D+00  0.0000000000000D+00
200  1.9900000000000D+00  0.0000000000000D+00  0.0000000000000D+00
201  2.0000000000000D+00  0.0000000000000D+00  0.0000000000000D+00
202  2.0100000000000D+00  0.0000000000000D+00  0.0000000000000D+00
203  2.0200000000000D+00  0.0000000000000D+00  0.0000000000000D+00
204  2.0300000000000D+00  0.0000000000000D+00  0.0000000000000D+00
205  2.0400000000000D+00  0.0000000000000D+00  0.0000000000000D+00
206  2.0500000000000D+00  0.0000000000000D+00  0.0000000000000D+00
207  2.0600000000000D+00  0.0000000000000D+00  0.0000000000000D+00
208  2.0700000000000D+00  0.0000000000000D+00  0.0000000000000D+00
209  2.0800000000000D+00  0.0000000000000D+00  0.0000000000000D+00
210  2.0900000000000D+00  0.0000000000000D+00  0.0000000000000D+00
211  2.1000000000000D+00  0.0000000000000D+00  0.0000000000000D+00
212  2.1100000000000D+00  0.0000000000000D+00  0.0000000000000D+00
213  2.1200000000000D+00  0.0000000000000D+00  0.0000000000000D+00
214  2.1300000000000D+00  0.0000000000000D+00  0.0000000000000D+00
215  2.1400000000000D+00  0.0000000000000D+00  0.0000000000000D+00
216  2.1500000000000D+00  0.0000000000000D+00  0.0000000000000D+00
217  2.1600000000000D+00  0.0000000000000D+00  0.0000000000000D+00
218  2.1700000000000D+00  0.0000000000000D+00  0.0000000000000D+00
219  2.1800000000000D+00  0.0000000000000D+00  0.0000000000000D+00
220  2.1900000000000D+00  0.0000000000000D+00  0.0000000000000D+00
221  2.2000000000000D+00  0.0000000000000D+00  0.0000000000000D+00
222  2.2100000000000D+00  0.0000000000000D+00  0.0000000000000D+00
223  2.2200000000000D+00  0.0000000000000D+00  0.0000000000000D+00
224  2.2300000000000D+00  0.0000000000000D+00  0.0000000000000D+00
225  2.2400000000000D+00  0.0000000000000D+00  0.0000000000000D+00
226  2.2500000000000D+00  0.0000000000000D+00  0.0000000000000D+00
227  2.2600000000000D+00  0.0000000000000D+00  0.0000000000000D+00
228  2.2700000000000D+00  0.0000000000000D+00  0.0000000000000D+00
229  2.2800000000000D+00  0.0000000000000D+00  0.0000000000000D+00
230  2.2900000000000D+00  0.0000000000000D+00  0.0000000000000D+00
231  2.3000000000000D+00  0.0000000000000D+00  0.0000000000000D+00
232  2.3100000000000D+00  0.0000000000000D+00  0.0000000000000D+00
233  2.3200000000000D+00  0.0000000000000D+00  0.0000000000000D+00
234  2.3300000000000D+00  0.0000000000000D+00  0.0000000000000D+00
235  2.3400000000000D+00  0.0000000000000D+00  0.0000000000000D+00
236  2.3500000000000D+00  0.0000000000000D+00  0.0000000000000D+00
237  2.3600000000000D+00  0.0000000000000D+00  0.0000000000000D+00
238  2.3700000000000D+00  0.0000000000000D+00  0.0000000000000D+00
239  2.3800000000000D+00  0.0000000000000D+00  0.0000000000000D+00
240  2.3900000000000D+00  0.0000000000000D+00  0.0000000000000D+00
241  2.4000000000000D+00  0.0000000000000D+00  0.0000000000000D+00
242  2.4100000000000D+00  0.0000000000000D+00  0.0000000000000D+00
243  2.4200000000000D+00  0.0000000000000D+00  0.0000000000000D+00
244  2.4300000000000D+00  0.0000000000000D+00  0.0000000000000D+00
245  2.4400000000000D+00  0.0000000000000D+00  0.0000000000000D+00
246  2.4500000000000D+00  0.0000000000000D+00  0.0000000000000D+00
247  2.4600000000000D+00  0.0000000000000D+00  0.0000000000000D+00
248  2.4700000000000D+00  0.0000000000000D+00  0.0000000000000D+00
249  2.4800000000000D+00  0.0000000000000D+00  0.0000000000000D+00
250  2.4900000000000D+00  0.0000000000000D+00  0.0000000000000D+00
251  2.5000000000000D+00  0.0000000000000D+00  0.0000000000000D+00
252  2.5100000000000D+00  0.0000000000000D+00  0.0000000000000D+00
253  2.5200000000000D+00  0.0000000000000D+00  0.0000000000000D+00
254  2.5300000000000D+00  0.0000000000000D+00  0.0000000000000D+00
255  2.5400000000000D+00  0.0000000000000D+00  0.0000000000000D+00
256  2.5500000000000D+00  0.0000000000000D+00  0.0000000000000D+00
257  2.5600000000000D+00  0.0000000000000D+00  0.0000000000000D+00
258  2.5700000000000D+00  0.0000000000000D+00  0.0000000000000D+00
259  2.5800000000000D+00  0.0000000000000D+00  0.0000000000000D+00
260  2.5900000000000D+00  0.0000000000000D+00  0.0000000000000D+00
261  2.6000000000000D+00  0.0000000000000D+00  0.0000000000000D+00
262  2.6100000000000D+00  0.0000000000000D+00  0.0000000000000D+00
263  2.6200000000000D+00  0.0000000000000D+00  0.0000000000000D+00
264  2.6300000000000D+00  0.0000000000000D+00  0.0000000000000D+00
265  2.6400000000000D+00  0.0000000000000D+00  0.0000000000000D+00
266  2.6500000000000D+00  0.0000000000000D+00  0.0000000000000D+00
267  2.6600000000000D+00  0.0000000000000D+00  0.0000000000000D+00
268  2.6700000000000D+00  0.0000000000000D+00  0.0000000000000D+00
269  2.6800000000000D+00  0.0000000000000D+00  0.0000000000000D+00
270  2.6900000000000D+00  0.0000000000000D+00  0.0000000000000D+00
271  2.7000000000000D+00  0.0000000000000D+00  0.0000000000000D+00
272  2.7100000000000D+00  0.0000000000000D+00  0.0000000000000D+00
273  2.7200000000000D+00  0.0000000000000D+00  0.0000000000000D+00
274  2.7300000000000D+00  0.0000000000000D+00  0.0000000000000D+00
275  2.7400000000000D+00  0.0000000000000D+00  0.0000000000000D+00
276  2.7500000000000D+00  0.0000000000000D+00  0.0000000000000D+00
277  2.7600000000000D+00  0.0000000000000D+00  0.0000000000000D+00
278  2.7700000000000D+00  0.0000000000000D+00  0.0000000000000D+00
279  2.7800000000000D+00  0.0000000000000D+00  0.0000000000000D+00
280  2.7900000000000D+00  0.0000000000000D+00  0.0000000000000D+00
281  2.8000000000000D+00  0.0000000000000D+00  0.0000000000000D+00
282  2.8100000000000D+00  0.0000000000000D+00  0.0000000000000D+00
283  2.8200000000000D+00  0.0000000000000D+00  0.0000000000000D+00
284  2.8300000000000D+00  0.0000000000000D+00  0.0000000000000D+00
285  2.8400000000000D+00  0.0000000000000D+00  0.0000000000000D+00
286  2.8500000000000D+00  0.0000000000000D+00  0.0000000000000D+00
287  2.8600000000000D+00  0.0000000000000D+00  0.0000000000000D+00
288  2.8700000000000D+00  0.0000000000000D+00  0.0000000000000D+00
289  2.8800000000000D+00  0.0000000000000D+00  0.0000000000000D+00
290  2.8900000000000D+00  0.0000000000000D+00  0.0000000000000D+00
291  2.9000000000000D+00  0.0000000000000D+00  0.0000000000000D+00
292  2.9100000000000D+00  0.0000000000000D+00  0.0000000000000D+00
293  2.9200000000000D+00  0.0000000000000D+00  0.0000000000000D+00
294  2.9300000000000D+00  0.0000000000000D+00  0.0000000000000D+00
295  2.9400000000000D+00  0.0000000000000D+00  0.0000000000000D+00
296  2.9500000000000D+00  0.0000000000000D+00  0.0000000000000D+00
297  2.9600000000000D+00  0.0000000000000D+00  0.0000000000000D+00
298  2.9700000000000D+00  0.0000000000000D+00  0.0000000000000D+00
299  2.9800000000000D+00  0.0000000000000D+00  0.0000000000000D+00
300  2.9900000000000D+00  0.0000000000000D+00  0.0000000000000D+00
301  3.0000000000000D+00  0.0000000000000D+00  0.0000000000000D+00
302  3.0100000000000D+00  0.0000000000000D+00  0.0000000000000D+00
303  3.0200000000000D+00  0.0000000000000D+00  0.0000000000000D+00
304  3.0300000000000D+00  0.0000000000000D+00  0.0000000000000D+00
305  3.0400000000000D+00  0.0000000000000D+00  0.0000000000000D+00
306  3.0500000000000D+00  0.0000000000000D+00  0.0000000000000D+00
307  3.0600000000000D+00  0.0000000000000D+00  0.0000000000000D+00
308  3.0700000000000D+00  0.0000000000000D+00  0.0000000000000D+00
309  3.0800000000000D+00  0.0000000000000D+00  0.0000000000000D+00
310  3.0900000000000D+00  0.0000000000000D+00  0.0000000000000D+00
311  3.1000000000000D+00  0.0000000000000D+00  0.0000000000000D+00
312  3.1100000000000D+00  0.0000000000000D+00  0.0000000000000D+00
313  3.1200000000000D+00  0.0000000000000D+00  0.0000000000000D+00
314  3.1300000000000D+00  0.0000000000000D+00  0.0000000000000D+00
315  3.1400000000000D+00  0.0000000000000D+00  0.0000000000000D+00
316  3.1500000000000D+00  0.0000000000000D+00  0.0000000000000D+00
317  3.1600000000000D+00  0.0000000000000D+00  0.0000000000000D+00
318  3.1700000000000D+00  0.0000000000000D+00  0.0000000000000D+00
319  3.1800000000000D+00  0.0000000000000D+00  0.0000000000000D+00
320  3.1900000000000D+00  0.0000000000000D+00  0.0000000000000D+00
321  3.2000000000000D+00  0.0000000000000D+00  0.0000000000000D+00
322  3.2100000000000D+00  0.0000000000000D+00  0.0000000000000D+00
323  3.2200000000000D+00  0.0000000000000D+00  0.0000000000000D+00
324  3.2300000000000D+00  0.0000000000000D+00  0.0000000000000D+00
325  3.2400000000000D+00  0.0000000000000D+00  0.0000000000000D+00
326  3.2500000000000D+00  0.0000000000000D+00  0.0000000000000D+00
327  3.2600000000000D+00  0.0000000000000D+00  0.0000000000000D+00
328  3.2700000000000D+00  0.0000000000000D+00  0.0000000000000D+00
329  3.2800000000000D+00  0.0000000000000D+00  0.0000000000000D+00
330  3.2900000000000D+00  0.0000000000000D+00  0.0000000000000D+00
331  3.3000000000000D+00  0.0000000000000D+00  0.0000000000000D+00
332  3.3100000000000D+00  0.0000000000000D+00  0.0000000000000D+00
333  3.3200000000000D+00  0.0000000000000D+00  0.0000000000000D+00
334  3.3300000000000D+00  0.0000000000000D+00  0.0000000000000D+00
335  3.3400000000000D+00  0.0000000000000D+00  0.0000000000000D+00
336  3.3500000000000D+00  0.0000000000000D+00  0.0000000000000D+00
337  3.3600000000000D+00  0.0000000000000D+00  0.0000000000000D+00
338  3.3700000000000D+00  0.0000000000000D+00  0.0000000000000D+00
339  3.3800000000000D+00  0.0000000000000D+00  0.0000000000000D+00
340  3.3900000000000D+00  0.0000000000000D+00  0.0000000000000D+00
341  3.4000000000000D+00  0.0000000000000D+00  0.0000000000000D+00
342  3.4100000000000D+00  0.0000000000000D+00  0.0000000000000D+00
343  3.4200000000000D+00  0.0000000000000D+00  0.0000000000000D+00
344  3.4300000000000D+00  0.0000000000000D+00  0.0000000000000D+00
345  3.4400000000000D+00  0.0000000000000D+00  0.0000000000000D+00
346  3.4500000000000D+00  0.0000000000000D+00  0.0000000000000D+00
347  3.4600000000000D+00  0.0000000000000D+00  0.0000000000000D+00
348  3.4700000000000D+00  0.0000000000000D+00  0.0000000000000D+00
349  3.4800000000000D+00  0.0000000000000D+00  0.0000000000000D+00
350  3.4900000000000D+00  0.0000000000000D+00  0.0000000000000D+00
351  3.5000000000000D+00  0.0000000000000D+00  0.0000000000000D+00
352  3.5100000000000D+00  0.0000000000000D+00  0.0000000000000D+00
353  3.5200000000000D+00  0.0000000000000D+00  0.0000000000000D+00
354  3.5300000000000D+00  0.0000000000000D+00  0.0000000000000D+00
355  3.5400000000000D+00  0.0000000000000D+00  0.0000000000000D+00
356  3.5500000000000D+00  0.0000000000000D+00  0.0000000000000D+00
357  3.5600000000000D+00  0.0000000000000D+00  0.0000000000000D+00
358  3.5700000000000D+00  0.0000000000000D+00  0.0000000000000D+00
359  3.5800000000000D+00  0.0000000000000D+00  0.0000000000000D+00
360  3.5900000000000D+00  0.0000000000000D+00  0.0000000000000D+00
361  3.6000000000000D+00  0.0000000000000D+00  0.0000000000000D+00
362  3.6100000000000D+00  0.0000000000000D+00  0.0000000000000D+00
363  3.6200000000000D+00  0.0000000000000D+00  0.0000000000000D+00
364  3.6300000000000D+00  0.0000000000000D+00  0.0000000000000D+00
365  3.6400000000000D+00  0.0000000000000D+00  0.0000000000000D+00
366  3.6500000000000D+00  0.0000000000000D+00  0.0000000000000D+00
367  3.6600000000000D+00  0.0000000000000D+00  0.0000000000000D+00
368  3.6700000000000D+00  0.0000000000000D+00  0.0000000000000D+00
369  3.6800000000000D+00  0.0000000000000D+00  0.0000000000000D+00
370  3.6900000000000D+00  0.0000000000000D+00  0.0000000000000D+00
371  3.7000000000000D+00  0.0000000000000D+00  0.0000000000000D+00
372  3.7100000000000D+00  0.0000000000000D+00  0.0000000000000D+00
373  3.7200000000000D+00  0.0000000000000D+00  0.0000000000000D+00
374  3.7300000000000D+00  0.0000000000000D+00  0.0000000000000D+00
375  3.7400000000000D+00  0.0000000000000D+00  0.0000000000000D+00
376  3.7500000000000D+00  0.0000000000000D+00  0.0000000000000D+00
377  3.7600000000000D+00  0.0000000000000D+00  0.0000000000000D+00
378  3.7700000000000D+00  0.0000000000000D+00  0.0000000000000D+00
379  3.7800000000000D+00  0.0000000000000D+00  0.0000000000000D+00
380  3.7900000000000D+00  0.0000000000000D+00  0.0000000000000D+00
381  3.8000000000000D+00  0.0000000000000D+00  0.0000000000000D+00
382  3.8100000000000D+00  0.0000000000000D+00  0.0000000000000D+00
383  3.8200000000000D+00  0.0000000000000D+00  0.0000000000000D+00
384  3.8300000000000D+00  0.0000000000000D+00  0.0000000000000D+00
385  3.8400000000000D+00  0.0000000000000D+00  0.0000000000000D+00
386  3.8500000000000D+00  0.0000000000000D+00  0.0000000000000D+00
387  3.8600000000000D+00  0.0000000000000D+00  0.0000000000000D+00
388  3.8700000000000D+00  0.0000000000000D+00  0.0000000000000D+00
389  3.8800000000000D+00  0.0000000000000D+00  0.0000000000000D+00
390  3.8900000000000D+00  0.0000000000000D+00  0.0000000000000D+00
391  3.9000000000000D+00  0.0000000000000D+00  0.0000000000000D+00
392  3.9100000000000D+00  0.0000000000000D+00  0.0000000000000D+00
393  3.9200000000000D+00  0.0000000000000D+00  0.0000000000000D+00
394  3.9300000000000D+00  0.0000000000000D+00  0.0000000000000D+00
395  3.9400000000000D+00  0.0000000000000D+00  0.0000000000000D+00
396  3.9500000000000D+00  0.0000000000000D+00  0.0000000000000D+00
397  3.9600000000000D+00  0.0000000000000D+00  0.0000000000000D+00
398  3.9700000000000D+00  0.0000000000000D+00  0.0000000000000D+00
399  3.9800000000000D+00  0.0000000000000D+00  0.0000000000000D+00
400  3.9900000000000D+00  0.0000000000000D+00  0.0000000000000D+00
1                        -3.8937377684396D+00 -8.2224131912266D-01
1  0.0000000000000D+00 -1.2416796618675D-08  3.8278656133706D-08
2  1.0000000000000D-02  2.8968731746656D-03 -7.7130274610894D-05
3  2.0000000000000D-02  1.1578409527749D-02 -3.3100866199896D-04
4  3.0000000000000D-02  2.6017148316557D-02 -8.2821794277720D-04
5  4.0000000000000D-02  4.6166625239755D-02 -1.6768198573676D-03
6  5.0000000000000D-02  7.1960354610961D-02 -3.0220723641684D-03
7  6.0000000000000D-02  1.0331045725132D-01 -5.0405950044686D-03
8  7.0000000000000D-02  1.4010598536206D-01 -7.9331389716962D-03
9  8.0000000000000D-02  1.8221100805471D-01 -1.1916156761240D-02
10  9.0000000000000D-02  2.2946253203213D-01 -1.7212399911208D-02
11  1.0000000000000D-01  2.8166834084845D-01 -2.4040801523998D-02
12  1.1000000000000D-01  3.3860484299346D-01 -3.2605922292028D-02
13  1.2000000000000D-01  4.0001502355836D-01 -4.3087254091926D-02
14  1.3000000000000D-01  4.6560659631370D-01 -5.5628683469197D-02
15  1.4000000000000D-01  5.3505045258168D-01 -7.0328418266066D-02
16  1.5000000000000D-01  6.0797950030240D-01 -8.7229674198151D-02
17  1.6000000000000D-01  6.8398798120560D-01 -1.0631240444908D-01
18  1.7000000000000D-01  7.6263134611223D-01 -1.2748633461163D-01
19  1.8000000000000D-01  8.4342675824918D-01 -1.5058553798222D-01
20  1.9000000000000D-01  9.2585428227744D-01 -1.7536475290601D-01
21  2.0000000000000D-01  1.0093588027600D+00 -2.0149760529369D-01
22  2.1000000000000D-01  1.0933527003321D+00 -2.2857685644128D-01
23  2.2000000000000D-01  1.1772192972148D+00 -2.5611674983316D-01
24  2.3000000000000D-01  1.2603170663009D+00 -2.8355748173907D-01
25  2.4000000000000D-01  1.3419845802225D+00 -3.1027177022446D-01
26  2.5000000000000D-01  1.4215461589848D+00 -3.3557344681962D-01
27  2.6000000000000D-01  1.4983181573188D+00 -3.5872794568629D-01
28  2.7000000000000D-01  1.5716158162691D+00 -3.7896451781056D-01
29  2.8000000000000D-01  1.6407605880781D+00 -3.9548995363821D-01
30  2.9000000000000D-01  1.7050878295065D+00 -4.0750355767789D-01
31  3.0000000000000D-01  1.7639547466923D+00 -4.1421308387557D-01
32  3.1000000000000D-01  1.8167484647729D+00 -4.1485131184152D-01
33  3.2000000000000D-01  1.8628940880388D+00 -4.0869292199562D-01
34  3.3000000000000D-01  1.9018626115509D+00 -3.9507131294936D-01
35  3.4000000000000D-01  1.9331785430774D+00 -3.7339499736830D-01
36  3.5000000000000D-01  1.9564270949823D+00 -3.4316321339181D-01
37  3.6000000000000D-01  1.9712608093523D+00 -3.0398039749698D-01
38  3.7000000000000D-01  1.9774054861388D+00 -2.5556918136202D-01
39  3.8000000000000D-01  1.9746652933355D+00 -1.9778159953390D-01
40  3.9000000000000D-01  1.9629269500417D+00 -1.3060822607802D-01
41  4.0000000000000D-01  1.9421628874662D+00 -5.4184996271249D-02
42  4.1000000000000D-01  1.9124333092583D+00  3.1202486959972D-02
43  4.2000000000000D-01  1.8738870906743D+00  1.2511731365228D-01