Bi    ONCVPSP-3.3.0  r_core=   1.40250   1.50656   1.40250
83.0000     23.0000      180430    zatom,zion,pspd
8 -116133   2     4   600     0    pspcod,pspxc,lmax,lloc,mmax,r2well
5.99000000  6.00000000  0.00000000    rchrg fchrg qchrg
2     4     4     0    nproj
3     1           extension_switch
4     4     0    nprojso
0                         2.3177273269462D+00  1.7039981551814D+01
1  0.0000000000000D+00  2.1431490193624D-09 -8.3758422420033D-10
2  1.0000000000000D-02 -2.2957492390999D-02  8.6149234184385D-02
3  2.0000000000000D-02 -4.5657205337374D-02  1.7204434941043D-01
4  3.0000000000000D-02 -6.7843915012632D-02  2.5743254159996D-01
5  4.0000000000000D-02 -8.9267473056405D-02  3.4206362213836D-01
6  5.0000000000000D-02 -1.0968525543879D-01  4.2569129008240D-01
7  6.0000000000000D-02 -1.2886450623242D-01  5.0807436234536D-01
8  7.0000000000000D-02 -1.4658454382017D-01  5.8897794885251D-01
9  8.0000000000000D-02 -1.6263879920953D-01  6.6817456049741D-01
10  9.0000000000000D-02 -1.7683665874239D-01  7.4544513875205D-01
11  1.0000000000000D-01 -1.8900508654120D-01  8.2057999697567D-01
12  1.1000000000000D-01 -1.9899000547304D-01  8.9337966480906D-01
13  1.2000000000000D-01 -2.0665741918906D-01  9.6365562851351D-01
14  1.3000000000000D-01 -2.1189426185149D-01  1.0312309616918D+00
15  1.4000000000000D-01 -2.1460896642962D-01  1.0959408424902D+00
16  1.5000000000000D-01 -2.1473174686661D-01  1.1576329550957D+00
17  1.6000000000000D-01 -2.1221459391933D-01  1.2161677750898D+00
18  1.7000000000000D-01 -2.0703098898595D-01  1.2714187399647D+00
19  1.8000000000000D-01 -1.9917534468791D-01  1.3232723078277D+00
20  1.9000000000000D-01 -1.8866218529525D-01  1.3716279089840D+00
21  2.0000000000000D-01 -1.7552508420682D-01  1.4163977966688D+00
22  2.1000000000000D-01 -1.5981537955385D-01  1.4575068046751D+00
23  2.2000000000000D-01 -1.4160069252379D-01  1.4948920209641D+00
24  2.3000000000000D-01 -1.2096327614218D-01  1.5285023875296D+00
25  2.4000000000000D-01 -9.7998224950416D-02  1.5582982377988D+00
26  2.5000000000000D-01 -7.2811578231492D-02  1.5842507836649D+00
27  2.6000000000000D-01 -4.5518351121066D-02  1.6063415648552D+00
28  2.7000000000000D-01 -1.6240529069348D-02  1.6245618737205D+00
29  2.8000000000000D-01  1.4894938335987D-02  1.6389121686888D+00
30  2.9000000000000D-01  4.7758108228630D-02  1.6494014895455D+00
31  3.0000000000000D-01  8.2217944701769D-02  1.6560468873861D+00
32  3.1000000000000D-01  1.1814411437833D-01  1.6588728815408D+00
33  3.2000000000000D-01  1.5540864510615D-01  1.6579109549923D+00
34  3.3000000000000D-01  1.9388741797457D-01  1.6531990988157D+00
35  3.4000000000000D-01  2.3346146578345D-01  1.6447814149766D+00
36  3.5000000000000D-01  2.7401805451957D-01  1.6327077854392D+00
37  3.6000000000000D-01  3.1545152826126D-01  1.6170336139931D+00
38  3.7000000000000D-01  3.5766390217961D-01  1.5978196455217D+00
39  3.8000000000000D-01  4.0056519287260D-01  1.5751318656316D+00
40  3.9000000000000D-01  4.4407348008400D-01  1.5490414816833D+00
41  4.0000000000000D-01  4.8811469884758D-01  1.5196249843177D+00
42  4.1000000000000D-01  5.3262216617875D-01  1.4869642866172D+00
43  4.2000000000000D-01  5.7753585152651D-01  1.4511469360909D+00
44  4.3000000000000D-01  6.2280140521616D-01  1.4122663927703D+00
45  4.4000000000000D-01  6.6836896396983D-01  1.3704223648821D+00
46  4.5000000000000D-01  7.1419175720584D-01  1.3257211918589D+00
47  4.6000000000000D-01  7.6022454210636D-01  1.2782762628858D+00
48  4.7000000000000D-01  8.0642189932739D-01  1.2282084578005D+00
49  4.8000000000000D-01  8.5273642463415D-01  1.1756465959892D+00
50  4.9000000000000D-01  8.9911685460911D-01  1.1207278779732D+00
51  5.0000000000000D-01  9.4550616684272D-01  1.0635983036954D+00
52  5.1000000000000D-01  9.9183969662400D-01  1.0044130510996D+00
53  5.2000000000000D-01  1.0380433130622D+00  9.4333679846855D-01
54  5.3000000000000D-01  1.0840316977564D+00  8.8054397416157D-01
55  5.4000000000000D-01  1.1297067685710D+00  8.1621891787105D-01
56  5.5000000000000D-01  1.1749562897631D+00  7.5055593830235D-01
57  5.6000000000000D-01  1.2196527076413D+00  6.8375925327160D-01
58  5.7000000000000D-01  1.2636522481458D+00  6.1604279959380D-01
59  5.8000000000000D-01  1.3067943092283D+00  5.4762990180061D-01
60  5.9000000000000D-01  1.3489011767609D+00  4.7875279063951D-01
61  6.0000000000000D-01  1.3897780879072D+00  4.0965196447370D-01
62  6.1000000000000D-01  1.4292136605945D+00  3.4057538905327D-01
63  6.2000000000000D-01  1.4669807019006D+00  2.7177753368015D-01
64  6.3000000000000D-01  1.5028374020128D+00  2.0351824445575D-01
65  6.4000000000000D-01  1.5365289139260D+00  1.3606145807879D-01
66  6.5000000000000D-01  1.5677893123635D+00  6.9673762495902D-02
67  6.6000000000000D-01  1.5963439186574D+00  4.6228135386089D-03
68  6.7000000000000D-01  1.6219119715552D+00 -5.8824380504116D-02
69  6.8000000000000D-01  1.6442096173015D+00 -1.2040329170718D-01
70  6.9000000000000D-01  1.6629531859599D+00 -1.7985380545908D-01
71  7.0000000000000D-01  1.6778627149155D+00 -2.3692223385638D-01
72  7.1000000000000D-01  1.6886656748992D+00 -2.9136338764975D-01
73  7.2000000000000D-01  1.6951008488775D+00 -3.4294268291499D-01
74  7.3000000000000D-01  1.6969223097774D+00 -3.9143825697799D-01
75  7.4000000000000D-01  1.6939034394040D+00 -4.3664306682071D-01
76  7.5000000000000D-01  1.6858409281015D+00 -4.7836694225331D-01
77  7.6000000000000D-01  1.6725586927970D+00 -5.1643856559286D-01
78  7.7000000000000D-01  1.6539116500942D+00 -5.5070734945500D-01
79  7.8000000000000D-01  1.6297892810842D+00 -5.8104518455645D-01
80  7.9000000000000D-01  1.6001189255498D+00 -6.0734803015329D-01
81  8.0000000000000D-01  1.5648687452551D+00 -6.2953732090119D-01
82  8.1000000000000D-01  1.5240502990369D+00 -6.4756116551498D-01
83  8.2000000000000D-01  1.4777206764121D+00 -6.6139531461262D-01
84  8.3000000000000D-01  1.4259841413643D+00 -6.7104387753316D-01
85  8.4000000000000D-01  1.3689932437956D+00 -6.7653977069356D-01
86  8.5000000000000D-01  1.3069493627672D+00 -6.7794488315890D-01
87  8.6000000000000D-01  1.2401026530312D+00 -6.7534994851686D-01
88  8.7000000000000D-01  1.1687513743405D+00 -6.6887411580603D-01
89  8.8000000000000D-01  1.0932405915545D+00 -6.5866421612550D-01
90  8.9000000000000D-01  1.0139602424371D+00 -6.4489372555786D-01
91  9.0000000000000D-01  9.3134257925079D-01 -6.2776142916743D-01
92  9.1000000000000D-01  8.4585899953051D-01 -6.0748979496923D-01
93  9.2000000000000D-01  7.5801629071047D-01 -5.8432307088462D-01
94  9.3000000000000D-01  6.6835232240383D-01 -5.5852512172256D-01
95  9.4000000000000D-01  5.7743122895392D-01 -5.3037702709511D-01
96  9.5000000000000D-01  4.8583813324855D-01 -5.0017446482917D-01
97  9.6000000000000D-01  3.9417347057444D-01 -4.6822490781369D-01
98  9.7000000000000D-01  3.0304697835708D-01 -4.3484466526794D-01
99  9.8000000000000D-01  2.1307142385581D-01 -4.0035580207728D-01
100  9.9000000000000D-01  1.2485614717462D-01 -3.6508297208029D-01
101  1.0000000000000D+00  3.9000501133268D-02 -3.2935020293225D-01
102  1.0100000000000D+00 -4.3912727342817D-02 -2.9347767143396D-01
103  1.0200000000000D+00 -1.2332382773734D-01 -2.5777850894106D-01
104  1.0300000000000D+00 -1.9870252120786D-01 -2.2255567660851D-01
105  1.0400000000000D+00 -2.6955407404446D-01 -1.8809894984030D-01
106  1.0500000000000D+00 -3.3542508476579D-01 -1.5468205031330D-01
107  1.0600000000000D+00 -3.9590886354653D-01 -1.2255996239605D-01
108  1.0700000000000D+00 -4.5065032685260D-01 -9.1966468829579D-02
109  1.0800000000000D+00 -4.9935033631051D-01 -6.3111937712344D-02
110  1.0900000000000D+00 -5.4176941723632D-01 -3.6181389916681D-02
111  1.1000000000000D+00 -5.7773080066767D-01 -1.1332872253950D-02
112  1.1100000000000D+00 -6.0712274076704D-01  1.1303841910069D-02
113  1.1200000000000D+00 -6.2990006951635D-01  3.1628207402584D-02
114  1.1300000000000D+00 -6.4608496118056D-01  4.9569504888486D-02
115  1.1400000000000D+00 -6.5576688982898D-01  6.5087073770987D-02
116  1.1500000000000D+00 -6.5910177398276D-01  7.8170177508633D-02
117  1.1600000000000D+00 -6.5631031363853D-01  8.8837503482755D-02
118  1.1700000000000D+00 -6.4767553782168D-01  9.7136305275689D-02
119  1.1800000000000D+00 -6.3353959177921D-01  1.0314120007539D-01
120  1.1900000000000D+00 -6.1429980184192D-01  1.0695263787486D-01
121  1.2000000000000D+00 -5.9040406945247D-01  1.0869506509412D-01
122  1.2100000000000D+00 -5.6234565500811D-01  1.0851480929685D-01
123  1.2200000000000D+00 -5.3065742079274D-01  1.0657771548738D-01
124  1.2300000000000D+00 -4.9590560941221D-01  1.0306656762818D-01
125  1.2400000000000D+00 -4.5868324480104D-01  9.8178333724073D-02
126  1.2500000000000D+00 -4.1960324606490D-01  9.2121274238704D-02
127  1.2600000000000D+00 -3.7929134903916D-01  8.5111955609093D-02
128  1.2700000000000D+00 -3.3837894358041D-01  7.7372216105256D-02
129  1.2800000000000D+00 -2.9749592751468D-01  6.9126128774137D-02
130  1.2900000000000D+00 -2.5726343662074D-01  6.0596910795843D-02
131  1.3000000000000D+00 -2.1828720147177D-01  5.2004080778313D-02
132  1.3100000000000D+00 -1.8115235145012D-01  4.3561172281391D-02
133  1.3200000000000D+00 -1.4640908620085D-01  3.5469960544923D-02
134  1.3300000000000D+00 -1.1455916968906D-01  2.7914965138960D-02
135  1.3400000000000D+00 -8.6041933686147D-02  2.1057716369037D-02
136  1.3500000000000D+00 -6.1229277817248D-02  1.5034496449839D-02
137  1.3600000000000D+00 -4.0435276060512D-02  9.9579571465792D-03
138  1.3700000000000D+00 -2.3839787349124D-02  5.8973573125913D-03
139  1.3800000000000D+00 -1.1568987721426D-02  2.8975632576425D-03
140  1.3900000000000D+00 -4.0960624487338D-03  1.0842253173389D-03
141  1.4000000000000D+00 -8.4106067359355D-04  2.9627408683174D-04
142  1.4100000000000D+00  2.4473726908230D-05  4.4386472275653D-05
143  1.4200000000000D+00 -5.7974109494150D-06 -3.4643887921617D-07
144  1.4300000000000D+00 -3.9305508730395D-05  1.7160903467846D-06
145  1.4400000000000D+00  3.6020593933392D-06  6.0080469040794D-07
146  1.4500000000000D+00  3.5706696784059D-06  3.0155829301208D-07
147  1.4600000000000D+00  1.2915582864676D-06 -5.4884504629035D-07
148  1.4700000000000D+00  2.3929192044750D-07 -1.0168661107360D-07
149  1.4800000000000D+00  0.0000000000000D+00  0.0000000000000D+00
150  1.4900000000000D+00  0.0000000000000D+00  0.0000000000000D+00
151  1.5000000000000D+00  0.0000000000000D+00  0.0000000000000D+00
152  1.5100000000000D+00  0.0000000000000D+00  0.0000000000000D+00
153  1.5200000000000D+00  0.0000000000000D+00  0.0000000000000D+00
154  1.5300000000000D+00  0.0000000000000D+00  0.0000000000000D+00
155  1.5400000000000D+00  0.0000000000000D+00  0.0000000000000D+00
156  1.5500000000000D+00  0.0000000000000D+00  0.0000000000000D+00
157  1.5600000000000D+00  0.0000000000000D+00  0.0000000000000D+00
158  1.5700000000000D+00  0.0000000000000D+00  0.0000000000000D+00
159  1.5800000000000D+00  0.0000000000000D+00  0.0000000000000D+00
160  1.5900000000000D+00  0.0000000000000D+00  0.0000000000000D+00
161  1.6000000000000D+00  0.0000000000000D+00  0.0000000000000D+00
162  1.6100000000000D+00  0.0000000000000D+00  0.0000000000000D+00
163  1.6200000000000D+00  0.0000000000000D+00  0.0000000000000D+00
164  1.6300000000000D+00  0.0000000000000D+00  0.0000000000000D+00
165  1.6400000000000D+00  0.0000000000000D+00  0.0000000000000D+00
166  1.6500000000000D+00  0.0000000000000D+00  0.0000000000000D+00
167  1.6600000000000D+00  0.0000000000000D+00  0.0000000000000D+00
168  1.6700000000000D+00  0.0000000000000D+00  0.0000000000000D+00
169  1.6800000000000D+00  0.0000000000000D+00  0.0000000000000D+00
170  1.6900000000000D+00  0.0000000000000D+00  0.0000000000000D+00
171  1.7000000000000D+00  0.0000000000000D+00  0.0000000000000D+00
172  1.7100000000000D+00  0.0000000000000D+00  0.0000000000000D+00
173  1.7200000000000D+00  0.0000000000000D+00  0.0000000000000D+00
174  1.7300000000000D+00  0.0000000000000D+00  0.0000000000000D+00
175  1.7400000000000D+00  0.0000000000000D+00  0.0000000000000D+00
176  1.7500000000000D+00  0.0000000000000D+00  0.0000000000000D+00
177  1.7600000000000D+00  0.0000000000000D+00  0.0000000000000D+00
178  1.7700000000000D+00  0.0000000000000D+00  0.0000000000000D+00
179  1.7800000000000D+00  0.0000000000000D+00  0.0000000000000D+00
180  1.7900000000000D+00  0.0000000000000D+00  0.0000000000000D+00
181  1.8000000000000D+00  0.0000000000000D+00  0.0000000000000D+00
182  1.8100000000000D+00  0.0000000000000D+00  0.0000000000000D+00
183  1.8200000000000D+00  0.0000000000000D+00  0.0000000000000D+00
184  1.8300000000000D+00  0.0000000000000D+00  0.0000000000000D+00
185  1.8400000000000D+00  0.0000000000000D+00  0.0000000000000D+00
186  1.8500000000000D+00  0.0000000000000D+00  0.0000000000000D+00
187  1.8600000000000D+00  0.0000000000000D+00  0.0000000000000D+00
188  1.8700000000000D+00  0.0000000000000D+00  0.0000000000000D+00
189  1.8800000000000D+00  0.0000000000000D+00  0.0000000000000D+00
190  1.8900000000000D+00  0.0000000000000D+00  0.0000000000000D+00
191  1.9000000000000D+00  0.0000000000000D+00  0.0000000000000D+00
192  1.9100000000000D+00  0.0000000000000D+00  0.0000000000000D+00
193  1.9200000000000D+00  0.0000000000000D+00  0.0000000000000D+00
194  1.9300000000000D+00  0.0000000000000D+00  0.0000000000000D+00
195  1.9400000000000D+00  0.0000000000000D+00  0.0000000000000D+00
196  1.9500000000000D+00  0.0000000000000D+00  0.0000000000000D+00
197  1.9600000000000D+00  0.0000000000000D+00  0.0000000000000D+00
198  1.9700000000000D+00  0.0000000000000D+00  0.0000000000000D+00
199  1.9800000000000D+00  0.0000000000000D+00  0.0000000000000D+00
200  1.9900000000000D+00  0.0000000000000D+00  0.0000000000000D+00
201  2.0000000000000D+00  0.0000000000000D+00  0.0000000000000D+00
202  2.0100000000000D+00  0.0000000000000D+00  0.0000000000000D+00
203  2.0200000000000D+00  0.0000000000000D+00  0.0000000000000D+00
204  2.0300000000000D+00  0.0000000000000D+00  0.0000000000000D+00
205  2.0400000000000D+00  0.0000000000000D+00  0.0000000000000D+00
206  2.0500000000000D+00  0.0000000000000D+00  0.0000000000000D+00
207  2.0600000000000D+00  0.0000000000000D+00  0.0000000000000D+00
208  2.0700000000000D+00  0.0000000000000D+00  0.0000000000000D+00
209  2.0800000000000D+00  0.0000000000000D+00  0.0000000000000D+00
210  2.0900000000000D+00  0.0000000000000D+00  0.0000000000000D+00
211  2.1000000000000D+00  0.0000000000000D+00  0.0000000000000D+00
212  2.1100000000000D+00  0.0000000000000D+00  0.0000000000000D+00
213  2.1200000000000D+00  0.0000000000000D+00  0.0000000000000D+00
214  2.1300000000000D+00  0.0000000000000D+00  0.0000000000000D+00
215  2.1400000000000D+00  0.0000000000000D+00  0.0000000000000D+00
216  2.1500000000000D+00  0.0000000000000D+00  0.0000000000000D+00
217  2.1600000000000D+00  0.0000000000000D+00  0.0000000000000D+00
218  2.1700000000000D+00  0.0000000000000D+00  0.0000000000000D+00
219  2.1800000000000D+00  0.0000000000000D+00  0.0000000000000D+00
220  2.1900000000000D+00  0.0000000000000D+00  0.0000000000000D+00
221  2.2000000000000D+00  0.0000000000000D+00  0.0000000000000D+00
222  2.2100000000000D+00  0.0000000000000D+00  0.0000000000000D+00
223  2.2200000000000D+00  0.0000000000000D+00  0.0000000000000D+00
224  2.2300000000000D+00  0.0000000000000D+00  0.0000000000000D+00
225  2.2400000000000D+00  0.0000000000000D+00  0.0000000000000D+00
226  2.2500000000000D+00  0.0000000000000D+00  0.0000000000000D+00
227  2.2600000000000D+00  0.0000000000000D+00  0.0000000000000D+00
228  2.2700000000000D+00  0.0000000000000D+00  0.0000000000000D+00
229  2.2800000000000D+00  0.0000000000000D+00  0.0000000000000D+00
230  2.2900000000000D+00  0.0000000000000D+00  0.0000000000000D+00
231  2.3000000000000D+00  0.0000000000000D+00  0.0000000000000D+00
232  2.3100000000000D+00  0.0000000000000D+00  0.0000000000000D+00
233  2.3200000000000D+00  0.0000000000000D+00  0.0000000000000D+00
234  2.3300000000000D+00  0.0000000000000D+00  0.0000000000000D+00
235  2.3400000000000D+00  0.0000000000000D+00  0.0000000000000D+00
236  2.3500000000000D+00  0.0000000000000D+00  0.0000000000000D+00
237  2.3600000000000D+00  0.0000000000000D+00  0.0000000000000D+00
238  2.3700000000000D+00  0.0000000000000D+00  0.0000000000000D+00
239  2.3800000000000D+00  0.0000000000000D+00  0.0000000000000D+00
240  2.3900000000000D+00  0.0000000000000D+00  0.0000000000000D+00
241  2.4000000000000D+00  0.0000000000000D+00  0.0000000000000D+00
242  2.4100000000000D+00  0.0000000000000D+00  0.0000000000000D+00
243  2.4200000000000D+00  0.0000000000000D+00  0.0000000000000D+00
244  2.4300000000000D+00  0.0000000000000D+00  0.0000000000000D+00
245  2.4400000000000D+00  0.0000000000000D+00  0.0000000000000D+00
246  2.4500000000000D+00  0.0000000000000D+00  0.0000000000000D+00
247  2.4600000000000D+00  0.0000000000000D+00  0.0000000000000D+00
248  2.4700000000000D+00  0.0000000000000D+00  0.0000000000000D+00
249  2.4800000000000D+00  0.0000000000000D+00  0.0000000000000D+00
250  2.4900000000000D+00  0.0000000000000D+00  0.0000000000000D+00
251  2.5000000000000D+00  0.0000000000000D+00  0.0000000000000D+00
252  2.5100000000000D+00  0.0000000000000D+00  0.0000000000000D+00
253  2.5200000000000D+00  0.0000000000000D+00  0.0000000000000D+00
254  2.5300000000000D+00  0.0000000000000D+00  0.0000000000000D+00
255  2.5400000000000D+00  0.0000000000000D+00  0.0000000000000D+00
256  2.5500000000000D+00  0.0000000000000D+00  0.0000000000000D+00
257  2.5600000000000D+00  0.0000000000000D+00  0.0000000000000D+00
258  2.5700000000000D+00  0.0000000000000D+00  0.0000000000000D+00
259  2.5800000000000D+00  0.0000000000000D+00  0.0000000000000D+00
260  2.5900000000000D+00  0.0000000000000D+00  0.0000000000000D+00
261  2.6000000000000D+00  0.0000000000000D+00  0.0000000000000D+00
262  2.6100000000000D+00  0.0000000000000D+00  0.0000000000000D+00
263  2.6200000000000D+00  0.0000000000000D+00  0.0000000000000D+00
264  2.6300000000000D+00  0.0000000000000D+00  0.0000000000000D+00
265  2.6400000000000D+00  0.0000000000000D+00  0.0000000000000D+00
266  2.6500000000000D+00  0.0000000000000D+00  0.0000000000000D+00
267  2.6600000000000D+00  0.0000000000000D+00  0.0000000000000D+00
268  2.6700000000000D+00  0.0000000000000D+00  0.0000000000000D+00
269  2.6800000000000D+00  0.0000000000000D+00  0.0000000000000D+00
270  2.6900000000000D+00  0.0000000000000D+00  0.0000000000000D+00
271  2.7000000000000D+00  0.0000000000000D+00  0.0000000000000D+00
272  2.7100000000000D+00  0.0000000000000D+00  0.0000000000000D+00
273  2.7200000000000D+00  0.0000000000000D+00  0.0000000000000D+00
274  2.7300000000000D+00  0.0000000000000D+00  0.0000000000000D+00
275  2.7400000000000D+00  0.0000000000000D+00  0.0000000000000D+00
276  2.7500000000000D+00  0.0000000000000D+00  0.0000000000000D+00
277  2.7600000000000D+00  0.0000000000000D+00  0.0000000000000D+00
278  2.7700000000000D+00  0.0000000000000D+00  0.0000000000000D+00
279  2.7800000000000D+00  0.0000000000000D+00  0.0000000000000D+00
280  2.7900000000000D+00  0.0000000000000D+00  0.0000000000000D+00
281  2.8000000000000D+00  0.0000000000000D+00  0.0000000000000D+00
282  2.8100000000000D+00  0.0000000000000D+00  0.0000000000000D+00
283  2.8200000000000D+00  0.0000000000000D+00  0.0000000000000D+00
284  2.8300000000000D+00  0.0000000000000D+00  0.0000000000000D+00
285  2.8400000000000D+00  0.0000000000000D+00  0.0000000000000D+00
286  2.8500000000000D+00  0.0000000000000D+00  0.0000000000000D+00
287  2.8600000000000D+00  0.0000000000000D+00  0.0000000000000D+00
288  2.8700000000000D+00  0.0000000000000D+00  0.0000000000000D+00
289  2.8800000000000D+00  0.0000000000000D+00  0.0000000000000D+00
290  2.8900000000000D+00  0.0000000000000D+00  0.0000000000000D+00
291  2.9000000000000D+00  0.0000000000000D+00  0.0000000000000D+00
292  2.9100000000000D+00  0.0000000000000D+00  0.0000000000000D+00
293  2.9200000000000D+00  0.0000000000000D+00  0.0000000000000D+00
294  2.9300000000000D+00  0.0000000000000D+00  0.0000000000000D+00
295  2.9400000000000D+00  0.0000000000000D+00  0.0000000000000D+00
296  2.9500000000000D+00  0.0000000000000D+00  0.0000000000000D+00
297  2.9600000000000D+00  0.0000000000000D+00  0.0000000000000D+00
298  2.9700000000000D+00  0.0000000000000D+00  0.0000000000000D+00
299  2.9800000000000D+00  0.0000000000000D+00  0.0000000000000D+00
300  2.9900000000000D+00  0.0000000000000D+00  0.0000000000000D+00
301  3.0000000000000D+00  0.0000000000000D+00  0.0000000000000D+00
302  3.0100000000000D+00  0.0000000000000D+00  0.0000000000000D+00
303  3.0200000000000D+00  0.0000000000000D+00  0.0000000000000D+00
304  3.0300000000000D+00  0.0000000000000D+00  0.0000000000000D+00
305  3.0400000000000D+00  0.0000000000000D+00  0.0000000000000D+00
306  3.0500000000000D+00  0.0000000000000D+00  0.0000000000000D+00
307  3.0600000000000D+00  0.0000000000000D+00  0.0000000000000D+00
308  3.0700000000000D+00  0.0000000000000D+00  0.0000000000000D+00
309  3.0800000000000D+00  0.0000000000000D+00  0.0000000000000D+00
310  3.0900000000000D+00  0.0000000000000D+00  0.0000000000000D+00
311  3.1000000000000D+00  0.0000000000000D+00  0.0000000000000D+00
312  3.1100000000000D+00  0.0000000000000D+00  0.0000000000000D+00
313  3.1200000000000D+00  0.0000000000000D+00  0.0000000000000D+00
314  3.1300000000000D+00  0.0000000000000D+00  0.0000000000000D+00
315  3.1400000000000D+00  0.0000000000000D+00  0.0000000000000D+00
316  3.1500000000000D+00  0.0000000000000D+00  0.0000000000000D+00
317  3.1600000000000D+00  0.0000000000000D+00  0.0000000000000D+00
318  3.1700000000000D+00  0.0000000000000D+00  0.0000000000000D+00
319  3.1800000000000D+00  0.0000000000000D+00  0.0000000000000D+00
320  3.1900000000000D+00  0.0000000000000D+00  0.0000000000000D+00
321  3.2000000000000D+00  0.0000000000000D+00  0.0000000000000D+00
322  3.2100000000000D+00  0.0000000000000D+00  0.0000000000000D+00
323  3.2200000000000D+00  0.0000000000000D+00  0.0000000000000D+00
324  3.2300000000000D+00  0.0000000000000D+00  0.0000000000000D+00
325  3.2400000000000D+00  0.0000000000000D+00  0.0000000000000D+00
326  3.2500000000000D+00  0.0000000000000D+00  0.0000000000000D+00
327  3.2600000000000D+00  0.0000000000000D+00  0.0000000000000D+00
328  3.2700000000000D+00  0.0000000000000D+00  0.0000000000000D+00
329  3.2800000000000D+00  0.0000000000000D+00  0.0000000000000D+00
330  3.2900000000000D+00  0.0000000000000D+00  0.0000000000000D+00
331  3.3000000000000D+00  0.0000000000000D+00  0.0000000000000D+00
332  3.3100000000000D+00  0.0000000000000D+00  0.0000000000000D+00
333  3.3200000000000D+00  0.0000000000000D+00  0.0000000000000D+00
334  3.3300000000000D+00  0.0000000000000D+00  0.0000000000000D+00
335  3.3400000000000D+00  0.0000000000000D+00  0.0000000000000D+00
336  3.3500000000000D+00  0.0000000000000D+00  0.0000000000000D+00
337  3.3600000000000D+00  0.0000000000000D+00  0.0000000000000D+00
338  3.3700000000000D+00  0.0000000000000D+00  0.0000000000000D+00
339  3.3800000000000D+00  0.0000000000000D+00  0.0000000000000D+00
340  3.3900000000000D+00  0.0000000000000D+00  0.0000000000000D+00
341  3.4000000000000D+00  0.0000000000000D+00  0.0000000000000D+00
342  3.4100000000000D+00  0.0000000000000D+00  0.0000000000000D+00
343  3.4200000000000D+00  0.0000000000000D+00  0.0000000000000D+00
344  3.4300000000000D+00  0.0000000000000D+00  0.0000000000000D+00
345  3.4400000000000D+00  0.0000000000000D+00  0.0000000000000D+00
346  3.4500000000000D+00  0.0000000000000D+00  0.0000000000000D+00
347  3.4600000000000D+00  0.0000000000000D+00  0.0000000000000D+00
348  3.4700000000000D+00  0.0000000000000D+00  0.0000000000000D+00
349  3.4800000000000D+00  0.0000000000000D+00  0.0000000000000D+00
350  3.4900000000000D+00  0.0000000000000D+00  0.0000000000000D+00
351  3.5000000000000D+00  0.0000000000000D+00  0.0000000000000D+00
352  3.5100000000000D+00  0.0000000000000D+00  0.0000000000000D+00
353  3.5200000000000D+00  0.0000000000000D+00  0.0000000000000D+00
354  3.5300000000000D+00  0.0000000000000D+00  0.0000000000000D+00
355  3.5400000000000D+00  0.0000000000000D+00  0.0000000000000D+00
356  3.5500000000000D+00  0.0000000000000D+00  0.0000000000000D+00
357  3.5600000000000D+00  0.0000000000000D+00  0.0000000000000D+00
358  3.5700000000000D+00  0.0000000000000D+00  0.0000000000000D+00
359  3.5800000000000D+00  0.0000000000000D+00  0.0000000000000D+00
360  3.5900000000000D+00  0.0000000000000D+00  0.0000000000000D+00
361  3.6000000000000D+00  0.0000000000000D+00  0.0000000000000D+00
362  3.6100000000000D+00  0.0000000000000D+00  0.0000000000000D+00
363  3.6200000000000D+00  0.0000000000000D+00  0.0000000000000D+00
364  3.6300000000000D+00  0.0000000000000D+00  0.0000000000000D+00
365  3.6400000000000D+00  0.0000000000000D+00  0.0000000000000D+00
366  3.6500000000000D+00  0.0000000000000D+00  0.0000000000000D+00
367  3.6600000000000D+00  0.0000000000000D+00  0.0000000000000D+00
368  3.6700000000000D+00  0.0000000000000D+00  0.0000000000000D+00
369  3.6800000000000D+00  0.0000000000000D+00  0.0000000000000D+00
370  3.6900000000000D+00  0.0000000000000D+00  0.0000000000000D+00
371  3.7000000000000D+00  0.0000000000000D+00  0.0000000000000D+00
372  3.7100000000000D+00  0.0000000000000D+00  0.0000000000000D+00
373  3.7200000000000D+00  0.0000000000000D+00  0.0000000000000D+00
374  3.7300000000000D+00  0.0000000000000D+00  0.0000000000000D+00
375  3.7400000000000D+00  0.0000000000000D+00  0.0000000000000D+00
376  3.7500000000000D+00  0.0000000000000D+00  0.0000000000000D+00
377  3.7600000000000D+00  0.0000000000000D+00  0.0000000000000D+00
378  3.7700000000000D+00  0.0000000000000D+00  0.0000000000000D+00
379  3.7800000000000D+00  0.0000000000000D+00  0.0000000000000D+00
380  3.7900000000000D+00  0.0000000000000D+00  0.0000000000000D+00
381  3.8000000000000D+00  0.0000000000000D+00  0.0000000000000D+00
382  3.8100000000000D+00  0.0000000000000D+00  0.0000000000000D+00
383  3.8200000000000D+00  0.0000000000000D+00  0.0000000000000D+00
384  3.8300000000000D+00  0.0000000000000D+00  0.0000000000000D+00
385  3.8400000000000D+00  0.0000000000000D+00  0.0000000000000D+00
386  3.8500000000000D+00  0.0000000000000D+00  0.0000000000000D+00
387  3.8600000000000D+00  0.0000000000000D+00  0.0000000000000D+00
388  3.8700000000000D+00  0.0000000000000D+00  0.0000000000000D+00
389  3.8800000000000D+00  0.0000000000000D+00  0.0000000000000D+00
390  3.8900000000000D+00  0.0000000000000D+00  0.0000000000000D+00
391  3.9000000000000D+00  0.0000000000000D+00  0.0000000000000D+00
392  3.9100000000000D+00  0.0000000000000D+00  0.0000000000000D+00
393  3.9200000000000D+00  0.0000000000000D+00  0.0000000000000D+00
394  3.9300000000000D+00  0.0000000000000D+00  0.0000000000000D+00
395  3.9400000000000D+00  0.0000000000000D+00  0.0000000000000D+00
396  3.9500000000000D+00  0.0000000000000D+00  0.0000000000000D+00
397  3.9600000000000D+00  0.0000000000000D+00  0.0000000000000D+00
398  3.9700000000000D+00  0.0000000000000D+00  0.0000000000000D+00
399  3.9800000000000D+00  0.0000000000000D+00  0.0000000000000D+00
400  3.9900000000000D+00  0.0000000000000D+00  0.0000000000000D+00
401  4.0000000000000D+00  0.0000000000000D+00  0.0000000000000D+00
402  4.0100000000000D+00  0.0000000000000D+00  0.0000000000000D+00
403  4.0200000000000D+00  0.0000000000000D+00  0.0000000000000D+00
404  4.0300000000000D+00  0.0000000000000D+00  0.0000000000000D+00
405  4.0400000000000D+00  0.0000000000000D+00  0.0000000000000D+00
406  4.0500000000000D+00  0.0000000000000D+00  0.0000000000000D+00
407  4.0600000000000D+00  0.0000000000000D+00  0.0000000000000D+00
408  4.0700000000000D+00  0.0000000000000D+00  0.0000000000000D+00
409  4.0800000000000D+00  0.0000000000000D+00  0.0000000000000D+00
410  4.0900000000000D+00  0.0000000000000D+00  0.0000000000000D+00
411  4.1000000000000D+00  0.0000000000000D+00  0.0000000000000D+00
412  4.1100000000000D+00  0.0000000000000D+00  0.0000000000000D+00
413  4.1200000000000D+00  0.0000000000000D+00  0.0000000000000D+00
414  4.1300000000000D+00  0.0000000000000D+00  0.0000000000000D+00
415  4.1400000000000D+00  0.0000000000000D+00  0.0000000000000D+00
416  4.1500000000000D+00  0.0000000000000D+00  0.0000000000000D+00
417  4.1600000000000D+00  0.0000000000000D+00  0.0000000000000D+00
418  4.1700000000000D+00  0.0000000000000D+00  0.0000000000000D+00
419  4.1800000000000D+00  0.0000000000000D+00  0.0000000000000D+00
420  4.1900000000000D+00  0.0000000000000D+00  0.0000000000000D+00
421  4.2000000000000D+00  0.0000000000000D+00  0.0000000000000D+00
422  4.2100000000000D+00  0.0000000000000D+00  0.0000000000000D+00
423  4.2200000000000D+00  0.0000000000000D+00  0.0000000000000D+00
424  4.2300000000000D+00  0.0000000000000D+00  0.0000000000000D+00
425  4.2400000000000D+00  0.0000000000000D+00  0.0000000000000D+00
426  4.2500000000000D+00  0.0000000000000D+00  0.0000000000000D+00
427  4.2600000000000D+00  0.0000000000000D+00  0.0000000000000D+00
428  4.2700000000000D+00  0.0000000000000D+00  0.0000000000000D+00
429  4.2800000000000D+00  0.0000000000000D+00  0.0000000000000D+00
430  4.2900000000000D+00  0.0000000000000D+00  0.0000000000000D+00
431  4.3000000000000D+00  0.0000000000000D+00  0.0000000000000D+00
432  4.3100000000000D+00  0.0000000000000D+00  0.0000000000000D+00
433  4.3200000000000D+00  0.0000000000000D+00  0.0000000000000D+00
434  4.3300000000000D+00  0.0000000000000D+00  0.0000000000000D+00
435  4.3400000000000D+00  0.0000000000000D+00  0.0000000000000D+00
436  4.3500000000000D+00  0.0000000000000D+00  0.0000000000000D+00
437  4.3600000000000D+00  0.0000000000000D+00  0.0000000000000D+00
438  4.3700000000000D+00  0.0000000000000D+00  0.0000000000000D+00
439  4.3800000000000D+00  0.0000000000000D+00  0.0000000000000D+00
440  4.3900000000000D+00  0.0000000000000D+00  0.0000000000000D+00
441  4.4000000000000D+00  0.0000000000000D+00  0.0000000000000D+00
442  4.4100000000000D+00  0.0000000000000D+00  0.0000000000000D+00
443  4.4200000000000D+00  0.0000000000000D+00  0.0000000000000D+00