Br    ONCVPSP-3.3.0  r_core=   1.81012   1.51356   1.92136
35.0000     17.0000      180503    zatom,zion,pspd
8 -116133   2     4   600     0    pspcod,pspxc,lmax,lloc,mmax,r2well
5.99000000  3.50000000  0.00000000    rchrg fchrg qchrg
2     3     2     0    nproj
3     1           extension_switch
4     3     0    nprojso
0                         9.0472234471136D-01  8.5315421078583D+00
1  0.0000000000000D+00 -1.3956391597958D-11  2.7088997711644D-11
2  1.0000000000000D-02 -1.2911297272793D-02  3.6076117367866D-02
3  2.0000000000000D-02 -2.5828111302727D-02  7.2145994749385D-02
4  3.0000000000000D-02 -3.8755731806925D-02  1.0820323214857D-01
5  4.0000000000000D-02 -5.1698995707966D-02  1.4424111070484D-01
6  5.0000000000000D-02 -6.4662063946963D-02  1.8025243614054D-01
7  6.0000000000000D-02 -7.7648202139404D-02  2.1622938564511D-01
8  7.0000000000000D-02 -9.0659566338652D-02  2.5216335930953D-01
9  8.0000000000000D-02 -1.0369699515800D-01  2.8804483719759D-01
10  9.0000000000000D-02 -1.1675980948461D-01  3.2386324310722D-01
11  1.0000000000000D-01 -1.2984562099745D-01  3.5960681603473D-01
12  1.1000000000000D-01 -1.4295015067597D-01  3.9526249030948D-01
13  1.2000000000000D-01 -1.5606705845721D-01  4.3081578531431D-01
14  1.3000000000000D-01 -1.6918778516562D-01  4.6625070564996D-01
15  1.4000000000000D-01 -1.8230140780224D-01  5.0154965253923D-01
16  1.5000000000000D-01 -1.9539450923778D-01  5.3669334719931D-01
17  1.6000000000000D-01 -2.0845106330745D-01  5.7166076683882D-01
18  1.7000000000000D-01 -2.2145233625395D-01  6.0642909386038D-01
19  1.8000000000000D-01 -2.3437680540878D-01  6.4097367877003D-01
20  1.9000000000000D-01 -2.4720009594063D-01  6.7526801721198D-01
21  2.0000000000000D-01 -2.5989493643325D-01  7.0928374146203D-01
22  2.1000000000000D-01 -2.7243113398402D-01  7.4299062662530D-01
23  2.2000000000000D-01 -2.8477556943686D-01  7.7635661169449D-01
24  2.3000000000000D-01 -2.9689221328235D-01  8.0934783553465D-01
25  2.4000000000000D-01 -3.0874216266983D-01  8.4192868776888D-01
26  2.5000000000000D-01 -3.2028369988466D-01  8.7406187444833D-01
27  2.6000000000000D-01 -3.3147237254641D-01  9.0570849829867D-01
28  2.7000000000000D-01 -3.4226109568189D-01  9.3682815324531D-01
29  2.8000000000000D-01 -3.5260027572028D-01  9.6737903283067D-01
30  2.9000000000000D-01 -3.6243795634679D-01  9.9731805205052D-01
31  3.0000000000000D-01 -3.7171998603649D-01  1.0266009820518D+00
32  3.1000000000000D-01 -3.8039020697130D-01  1.0551825970531D+00
33  3.2000000000000D-01 -3.8839066492193D-01  1.0830168327717D+00
34  3.3000000000000D-01 -3.9566183955164D-01  1.1100569555652D+00
35  3.4000000000000D-01 -4.0214289447326D-01  1.1362557414303D+00
36  3.5000000000000D-01 -4.0777194626229D-01  1.1615656639299D+00
37  3.6000000000000D-01 -4.1248635150082D-01  1.1859390900679D+00
38  3.7000000000000D-01 -4.1622301079814D-01  1.2093284830698D+00
39  3.8000000000000D-01 -4.1891868860612D-01  1.2316866109835D+00
40  3.9000000000000D-01 -4.2051034752072D-01  1.2529667599713D+00
41  4.0000000000000D-01 -4.2093549563732D-01  1.2731229511269D+00
42  4.1000000000000D-01 -4.2013254540637D-01  1.2921101596250D+00
43  4.2000000000000D-01 -4.1804118231943D-01  1.3098845349865D+00
44  4.3000000000000D-01 -4.1460274164419D-01  1.3264036212286D+00
45  4.4000000000000D-01 -4.0976059132143D-01  1.3416265756600D+00
46  4.5000000000000D-01 -4.0346051903845D-01  1.3555143850813D+00
47  4.6000000000000D-01 -3.9565112140348D-01  1.3680300781568D+00
48  4.7000000000000D-01 -3.8628419306311D-01  1.3791389327375D+00
49  4.8000000000000D-01 -3.7531511353421D-01  1.3888086769347D+00
50  4.9000000000000D-01 -3.6270322946002D-01  1.3970096827729D+00
51  5.0000000000000D-01 -3.4841222995114D-01  1.4037151512853D+00
52  5.1000000000000D-01 -3.3241051263522D-01  1.4089012879526D+00
53  5.2000000000000D-01 -3.1467153801537D-01  1.4125474674399D+00
54  5.3000000000000D-01 -2.9517416972764D-01  1.4146363866346D+00
55  5.4000000000000D-01 -2.7390299829252D-01  1.4151542050506D+00
56  5.5000000000000D-01 -2.5084864597514D-01  1.4140906717297D+00
57  5.6000000000000D-01 -2.2600805040439D-01  1.4114392378390D+00
58  5.7000000000000D-01 -1.9938472465215D-01  1.4071971542425D+00
59  5.8000000000000D-01 -1.7098899154115D-01  1.4013655533992D+00
60  5.9000000000000D-01 -1.4083819003380D-01  1.3939495150282D+00
61  6.0000000000000D-01 -1.0895685165389D-01  1.3849581150652D+00
62  6.1000000000000D-01 -7.5376845009780D-02  1.3744044575243D+00
63  6.2000000000000D-01 -4.0137486619042D-02  1.3623056889724D+00
64  6.3000000000000D-01 -3.2856163833167D-03  1.3486829954154D+00
65  6.4000000000000D-01  3.5124363775543D-02  1.3335615814908D+00
66  6.5000000000000D-01  7.5030489429168D-02  1.3169706319567D+00
67  6.6000000000000D-01  1.1636327242537D-01  1.2989432555627D+00
68  6.7000000000000D-01  1.5904577985516D-01  1.2795164114831D+00
69  6.8000000000000D-01  2.0299375390241D-01  1.2587308185854D+00
70  6.9000000000000D-01  2.4811577304707D-01  1.2366308479026D+00
71  7.0000000000000D-01  2.9431345485567D-01  1.2132643987642D+00
72  7.1000000000000D-01  3.4148170034754D-01  1.1886827591299D+00
73  7.2000000000000D-01  3.8950897967265D-01  1.1629404507555D+00
74  7.3000000000000D-01  4.3827765857879D-01  1.1360950598975D+00
75  7.4000000000000D-01  4.8766436488486D-01  1.1082070543429D+00
76  7.5000000000000D-01  5.3754039391319D-01  1.0793395876206D+00
77  7.6000000000000D-01  5.8777215156956D-01  1.0495582913169D+00
78  7.7000000000000D-01  6.3822163349847D-01  1.0189310564793D+00
79  7.8000000000000D-01  6.8874693848074D-01  9.8752780515112D-01
80  7.9000000000000D-01  7.3920281398820D-01  9.5542025312232D-01
81  8.0000000000000D-01  7.8944123156318D-01  9.2268166503324D-01
82  8.1000000000000D-01  8.3931198945369D-01  8.8938660299758D-01
83  8.2000000000000D-01  8.8866333970860D-01  8.5561066994514D-01
84  8.3000000000000D-01  9.3734263672383D-01  8.2143024890593D-01
85  8.4000000000000D-01  9.8519700403206D-01  7.8692223947404D-01
86  8.5000000000000D-01  1.0320740159456D+00  7.5216379269842D-01
87  8.6000000000000D-01  1.0778223904980D+00  7.1723204564990D-01
88  8.7000000000000D-01  1.1222926899862D+00  6.8220385690880D-01
89  8.8000000000000D-01  1.1653380252885D+00  6.4715554420590D-01
90  8.9000000000000D-01  1.2068147600371D+00  6.1216262543067D-01
91  9.0000000000000D-01  1.2465832106413D+00  5.7729956419566D-01
92  9.1000000000000D-01  1.2845083381084D+00  5.4263952111469D-01
93  9.2000000000000D-01  1.3204604275788D+00  5.0825411191443D-01
94  9.3000000000000D-01  1.3543157514943D+00  4.7421317345577D-01
95  9.4000000000000D-01  1.3859572123391D+00  4.4058453869230D-01
96  9.5000000000000D-01  1.4152749609505D+00  4.0743382153926D-01
97  9.6000000000000D-01  1.4421669864742D+00  3.7482421256679D-01
98  9.7000000000000D-01  1.4665396741450D+00  3.4281628636863D-01
99  9.8000000000000D-01  1.4883083272088D+00  3.1146782139043D-01
100  9.9000000000000D-01  1.5073976494645D+00  2.8083363292979D-01
101  1.0000000000000D+00  1.5237421850853D+00  2.5096541994776D-01
102  1.0100000000000D+00  1.5372867125964D+00  2.2191162625445D-01
103  1.0200000000000D+00  1.5479865901147D+00  1.9371731655359D-01
104  1.0300000000000D+00  1.5558080492216D+00  1.6642406774975D-01
105  1.0400000000000D+00  1.5607284351103D+00  1.4006987584279D-01
106  1.0500000000000D+00  1.5627363909476D+00  1.1468907865236D-01
107  1.0600000000000D+00  1.5618319847149D+00  9.0312294531514D-02
108  1.0700000000000D+00  1.5580267771118D+00  6.6966377150418D-02
109  1.0800000000000D+00  1.5513438294622D+00  4.4674386348330D-02
110  1.0900000000000D+00  1.5418176509122D+00  2.3455574974683D-02
111  1.1000000000000D+00  1.5294940845577D+00  3.3253915660888D-03
112  1.1100000000000D+00  1.5144301325459D+00 -1.5704501376024D-02
113  1.1200000000000D+00  1.4966937205345D+00 -3.3626193806724D-02
114  1.1300000000000D+00  1.4763634023136D+00 -5.0435479635294D-02
115  1.1400000000000D+00  1.4535280056741D+00 -6.6131793725804D-02
116  1.1500000000000D+00  1.4282862210992D+00 -8.0718134910201D-02
117  1.1600000000000D+00  1.4007461351284D+00 -9.4200975565807D-02
118  1.1700000000000D+00  1.3710247106576D+00 -1.0659015837172D-01
119  1.1800000000000D+00  1.3392472166766D+00 -1.1789878089431D-01
120  1.1900000000000D+00  1.3055466104085D+00 -1.2814306871504D-01
121  1.2000000000000D+00  1.2700628750458D+00 -1.3734223784106D-01
122  1.2100000000000D+00  1.2329423165413D+00 -1.4551834717206D-01
123  1.2200000000000D+00  1.1943368232248D+00 -1.5269614183244D-01
124  1.2300000000000D+00  1.1544030922732D+00 -1.5890288820180D-01
125  1.2400000000000D+00  1.1133018272294D+00 -1.6416820149026D-01
126  1.2500000000000D+00  1.0711969109468D+00 -1.6852386672242D-01
127  1.2600000000000D+00  1.0282545585766D+00 -1.7200365400605D-01
128  1.2700000000000D+00  9.8464245525942D-01 -1.7464312895629D-01
129  1.2800000000000D+00  9.4052888329084D-01 -1.7647945915625D-01
130  1.2900000000000D+00  8.9608184366133D-01 -1.7755121752207D-01
131  1.3000000000000D+00  8.5146817679516D-01 -1.7789818342452D-01
132  1.3100000000000D+00  8.0685268742029D-01 -1.7756114242751D-01
133  1.3200000000000D+00  7.6239727838696D-01 -1.7658168545485D-01
134  1.3300000000000D+00  7.1826009816908D-01 -1.7500200818837D-01
135  1.3400000000000D+00  6.7459470683916D-01 -1.7286471149478D-01
136  1.3500000000000D+00  6.3154926489065D-01 -1.7021260359692D-01
137  1.3600000000000D+00  5.8926574937971D-01 -1.6708850472744D-01
138  1.3700000000000D+00  5.4787920163087D-01 -1.6353505495029D-01
139  1.3800000000000D+00  5.0751701014093D-01 -1.5959452574635D-01
140  1.3900000000000D+00  4.6829823285072D-01 -1.5530863603675D-01
141  1.4000000000000D+00  4.3033296179626D-01 -1.5071837314081D-01
142  1.4100000000000D+00  3.9372173334336D-01 -1.4586381920452D-01
143  1.4200000000000D+00  3.5855498715291D-01 -1.4078398361361D-01
144  1.4300000000000D+00  3.2491257560265D-01 -1.3551664172796D-01
145  1.4400000000000D+00  2.9286332667117D-01 -1.3009818043384D-01
146  1.4500000000000D+00  2.6246466127178D-01 -1.2456345075637D-01
147  1.4600000000000D+00  2.3376226668745D-01 -1.1894562786503D-01
148  1.4700000000000D+00  2.0678982298442D-01 -1.1327607793103D-01
149  1.4800000000000D+00  1.8156880262664D-01 -1.0758423564137D-01
150  1.4900000000000D+00  1.5810829975674D-01 -1.0189748480298D-01
151  1.5000000000000D+00  1.3640508260924D-01 -9.6241077747039D-02
152  1.5100000000000D+00  1.1644305020741D-01 -9.0637940528621D-02
153  1.5200000000000D+00  9.8193790376528D-02 -8.5108683220284D-02
154  1.5300000000000D+00  8.1618330091881D-02 -7.9671821827329D-02
155  1.5400000000000D+00  6.6668700459506D-02 -7.4343998474872D-02
156  1.5500000000000D+00  5.3290088406927D-02 -6.9140327184942D-02
157  1.5600000000000D+00  4.1421365764629D-02 -6.4074443594664D-02
158  1.5700000000000D+00  3.0995289086051D-02 -5.9158504271584D-02
159  1.5800000000000D+00  2.1939352476700D-02 -5.4403294857743D-02
160  1.5900000000000D+00  1.4176349695636D-02 -4.9818288991269D-02
161  1.6000000000000D+00  7.6250643214745D-03 -4.5411728962888D-02
162  1.6100000000000D+00  2.2009456044874D-03 -4.1190703669633D-02
163  1.6200000000000D+00 -2.1831981703517D-03 -3.7161229448488D-02
164  1.6300000000000D+00 -5.6164991902481D-03 -3.3328332204734D-02
165  1.6400000000000D+00 -8.1893271494373D-03 -2.9696130077919D-02
166  1.6500000000000D+00 -9.9925888100560D-03 -2.6267916003031D-02
167  1.6600000000000D+00 -1.1117034774358D-02 -2.3046239468973D-02
168  1.6700000000000D+00 -1.1652578363831D-02 -2.0032986850268D-02
169  1.6800000000000D+00 -1.1687631095666D-02 -1.7229459687061D-02
170  1.6900000000000D+00 -1.1308459522524D-02 -1.4636450316567D-02
171  1.7000000000000D+00 -1.0598567580503D-02 -1.2254314306028D-02
172  1.7100000000000D+00 -9.6381089435719D-03 -1.0083039139139D-02
173  1.7200000000000D+00 -8.5033331702375D-03 -8.1223086680964D-03
174  1.7300000000000D+00 -7.2660695745788D-03 -6.3715628691763D-03
175  1.7400000000000D+00 -5.9932524284271D-03 -4.8300524448523D-03
176  1.7500000000000D+00 -4.7476763917311D-03 -3.4971673693225D-03
177  1.7600000000000D+00 -3.5840843007735D-03 -2.3716485115765D-03
178  1.7700000000000D+00 -2.5425490710222D-03 -1.4508154903276D-03
179  1.7800000000000D+00 -1.6720246999611D-03 -7.3479768344071D-04
180  1.7900000000000D+00 -1.0572336047191D-03 -2.2744049296981D-04
181  1.8000000000000D+00 -7.2294792951170D-04  7.5852841419863D-05
182  1.8100000000000D+00 -5.0883062758054D-04  1.8452402239058D-04
183  1.8200000000000D+00 -2.5016559147656D-04  1.2574777898098D-04
184  1.8300000000000D+00 -2.9973837977997D-05  1.7202737701784D-05
185  1.8400000000000D+00  4.3576789691746D-05 -2.6468726085987D-05
186  1.8500000000000D+00  1.8250311922458D-05 -1.1671935132002D-05
187  1.8600000000000D+00 -8.7686900833175D-06  4.8072566284998D-06
188  1.8700000000000D+00 -7.2071138436557D-06  4.0432442025938D-06
189  1.8800000000000D+00  8.3652977389476D-07 -3.0518778755417D-07
190  1.8900000000000D+00  1.2961626826909D-06 -4.7287381009643D-07
191  1.9000000000000D+00  0.0000000000000D+00  0.0000000000000D+00
192  1.9100000000000D+00  0.0000000000000D+00  0.0000000000000D+00
193  1.9200000000000D+00  0.0000000000000D+00  0.0000000000000D+00
194  1.9300000000000D+00  0.0000000000000D+00  0.0000000000000D+00
195  1.9400000000000D+00  0.0000000000000D+00  0.0000000000000D+00
196  1.9500000000000D+00  0.0000000000000D+00  0.0000000000000D+00
197  1.9600000000000D+00  0.0000000000000D+00  0.0000000000000D+00
198  1.9700000000000D+00  0.0000000000000D+00  0.0000000000000D+00
199  1.9800000000000D+00  0.0000000000000D+00  0.0000000000000D+00
200  1.9900000000000D+00  0.0000000000000D+00  0.0000000000000D+00
201  2.0000000000000D+00  0.0000000000000D+00  0.0000000000000D+00
202  2.0100000000000D+00  0.0000000000000D+00  0.0000000000000D+00
203  2.0200000000000D+00  0.0000000000000D+00  0.0000000000000D+00
204  2.0300000000000D+00  0.0000000000000D+00  0.0000000000000D+00
205  2.0400000000000D+00  0.0000000000000D+00  0.0000000000000D+00
206  2.0500000000000D+00  0.0000000000000D+00  0.0000000000000D+00
207  2.0600000000000D+00  0.0000000000000D+00  0.0000000000000D+00
208  2.0700000000000D+00  0.0000000000000D+00  0.0000000000000D+00
209  2.0800000000000D+00  0.0000000000000D+00  0.0000000000000D+00
210  2.0900000000000D+00  0.0000000000000D+00  0.0000000000000D+00
211  2.1000000000000D+00  0.0000000000000D+00  0.0000000000000D+00
212  2.1100000000000D+00  0.0000000000000D+00  0.0000000000000D+00
213  2.1200000000000D+00  0.0000000000000D+00  0.0000000000000D+00
214  2.1300000000000D+00  0.0000000000000D+00  0.0000000000000D+00
215  2.1400000000000D+00  0.0000000000000D+00  0.0000000000000D+00
216  2.1500000000000D+00  0.0000000000000D+00  0.0000000000000D+00
217  2.1600000000000D+00  0.0000000000000D+00  0.0000000000000D+00
218  2.1700000000000D+00  0.0000000000000D+00  0.0000000000000D+00
219  2.1800000000000D+00  0.0000000000000D+00  0.0000000000000D+00
220  2.1900000000000D+00  0.0000000000000D+00  0.0000000000000D+00
221  2.2000000000000D+00  0.0000000000000D+00  0.0000000000000D+00
222  2.2100000000000D+00  0.0000000000000D+00  0.0000000000000D+00
223  2.2200000000000D+00  0.0000000000000D+00  0.0000000000000D+00
224  2.2300000000000D+00  0.0000000000000D+00  0.0000000000000D+00
225  2.2400000000000D+00  0.0000000000000D+00  0.0000000000000D+00
226  2.2500000000000D+00  0.0000000000000D+00  0.0000000000000D+00
227  2.2600000000000D+00  0.0000000000000D+00  0.0000000000000D+00
228  2.2700000000000D+00  0.0000000000000D+00  0.0000000000000D+00
229  2.2800000000000D+00  0.0000000000000D+00  0.0000000000000D+00
230  2.2900000000000D+00  0.0000000000000D+00  0.0000000000000D+00
231  2.3000000000000D+00  0.0000000000000D+00  0.0000000000000D+00
232  2.3100000000000D+00  0.0000000000000D+00  0.0000000000000D+00
233  2.3200000000000D+00  0.0000000000000D+00  0.0000000000000D+00
234  2.3300000000000D+00  0.0000000000000D+00  0.0000000000000D+00
235  2.3400000000000D+00  0.0000000000000D+00  0.0000000000000D+00
236  2.3500000000000D+00  0.0000000000000D+00  0.0000000000000D+00
237  2.3600000000000D+00  0.0000000000000D+00  0.0000000000000D+00
238  2.3700000000000D+00  0.0000000000000D+00  0.0000000000000D+00
239  2.3800000000000D+00  0.0000000000000D+00  0.0000000000000D+00
240  2.3900000000000D+00  0.0000000000000D+00  0.0000000000000D+00
241  2.4000000000000D+00  0.0000000000000D+00  0.0000000000000D+00
242  2.4100000000000D+00  0.0000000000000D+00  0.0000000000000D+00
243  2.4200000000000D+00  0.0000000000000D+00  0.0000000000000D+00
244  2.4300000000000D+00  0.0000000000000D+00  0.0000000000000D+00
245  2.4400000000000D+00  0.0000000000000D+00  0.0000000000000D+00
246  2.4500000000000D+00  0.0000000000000D+00  0.0000000000000D+00
247  2.4600000000000D+00  0.0000000000000D+00  0.0000000000000D+00
248  2.4700000000000D+00  0.0000000000000D+00  0.0000000000000D+00
249  2.4800000000000D+00  0.0000000000000D+00  0.0000000000000D+00
250  2.4900000000000D+00  0.0000000000000D+00  0.0000000000000D+00
251  2.5000000000000D+00  0.0000000000000D+00  0.0000000000000D+00
252  2.5100000000000D+00  0.0000000000000D+00  0.0000000000000D+00
253  2.5200000000000D+00  0.0000000000000D+00  0.0000000000000D+00
254  2.5300000000000D+00  0.0000000000000D+00  0.0000000000000D+00
255  2.5400000000000D+00  0.0000000000000D+00  0.0000000000000D+00
256  2.5500000000000D+00  0.0000000000000D+00  0.0000000000000D+00
257  2.5600000000000D+00  0.0000000000000D+00  0.0000000000000D+00
258  2.5700000000000D+00  0.0000000000000D+00  0.0000000000000D+00
259  2.5800000000000D+00  0.0000000000000D+00  0.0000000000000D+00
260  2.5900000000000D+00  0.0000000000000D+00  0.0000000000000D+00
261  2.6000000000000D+00  0.0000000000000D+00  0.0000000000000D+00
262  2.6100000000000D+00  0.0000000000000D+00  0.0000000000000D+00
263  2.6200000000000D+00  0.0000000000000D+00  0.0000000000000D+00
264  2.6300000000000D+00  0.0000000000000D+00  0.0000000000000D+00
265  2.6400000000000D+00  0.0000000000000D+00  0.0000000000000D+00
266  2.6500000000000D+00  0.0000000000000D+00  0.0000000000000D+00
267  2.6600000000000D+00  0.0000000000000D+00  0.0000000000000D+00
268  2.6700000000000D+00  0.0000000000000D+00  0.0000000000000D+00
269  2.6800000000000D+00  0.0000000000000D+00  0.0000000000000D+00
270  2.6900000000000D+00  0.0000000000000D+00  0.0000000000000D+00
271  2.7000000000000D+00  0.0000000000000D+00  0.0000000000000D+00
272  2.7100000000000D+00  0.0000000000000D+00  0.0000000000000D+00
273  2.7200000000000D+00  0.0000000000000D+00  0.0000000000000D+00
274  2.7300000000000D+00  0.0000000000000D+00  0.0000000000000D+00
275  2.7400000000000D+00  0.0000000000000D+00  0.0000000000000D+00
276  2.7500000000000D+00  0.0000000000000D+00  0.0000000000000D+00
277  2.7600000000000D+00  0.0000000000000D+00  0.0000000000000D+00
278  2.7700000000000D+00  0.0000000000000D+00  0.0000000000000D+00
279  2.7800000000000D+00  0.0000000000000D+00  0.0000000000000D+00
280  2.7900000000000D+00  0.0000000000000D+00  0.0000000000000D+00
281  2.8000000000000D+00  0.0000000000000D+00  0.0000000000000D+00
282  2.8100000000000D+00  0.0000000000000D+00  0.0000000000000D+00
283  2.8200000000000D+00  0.0000000000000D+00  0.0000000000000D+00
284  2.8300000000000D+00  0.0000000000000D+00  0.0000000000000D+00
285  2.8400000000000D+00  0.0000000000000D+00  0.0000000000000D+00
286  2.8500000000000D+00  0.0000000000000D+00  0.0000000000000D+00
287  2.8600000000000D+00  0.0000000000000D+00  0.0000000000000D+00
288  2.8700000000000D+00  0.0000000000000D+00  0.0000000000000D+00
289  2.8800000000000D+00  0.0000000000000D+00  0.0000000000000D+00
290  2.8900000000000D+00  0.0000000000000D+00  0.0000000000000D+00
291  2.9000000000000D+00  0.0000000000000D+00  0.0000000000000D+00
292  2.9100000000000D+00  0.0000000000000D+00  0.0000000000000D+00
293  2.9200000000000D+00  0.0000000000000D+00  0.0000000000000D+00
294  2.9300000000000D+00  0.0000000000000D+00  0.0000000000000D+00
295  2.9400000000000D+00  0.0000000000000D+00  0.0000000000000D+00
296  2.9500000000000D+00  0.0000000000000D+00  0.0000000000000D+00
297  2.9600000000000D+00  0.0000000000000D+00  0.0000000000000D+00
298  2.9700000000000D+00  0.0000000000000D+00  0.0000000000000D+00
299  2.9800000000000D+00  0.0000000000000D+00  0.0000000000000D+00
300  2.9900000000000D+00  0.0000000000000D+00  0.0000000000000D+00
301  3.0000000000000D+00  0.0000000000000D+00  0.0000000000000D+00
302  3.0100000000000D+00  0.0000000000000D+00  0.0000000000000D+00
303  3.0200000000000D+00  0.0000000000000D+00  0.0000000000000D+00
304  3.0300000000000D+00  0.0000000000000D+00  0.0000000000000D+00
305  3.0400000000000D+00  0.0000000000000D+00  0.0000000000000D+00
306  3.0500000000000D+00  0.0000000000000D+00  0.0000000000000D+00
307  3.0600000000000D+00  0.0000000000000D+00  0.0000000000000D+00
308  3.0700000000000D+00  0.0000000000000D+00  0.0000000000000D+00
309  3.0800000000000D+00  0.0000000000000D+00  0.0000000000000D+00
310  3.0900000000000D+00  0.0000000000000D+00  0.0000000000000D+00
311  3.1000000000000D+00  0.0000000000000D+00  0.0000000000000D+00
312  3.1100000000000D+00  0.0000000000000D+00  0.0000000000000D+00
313  3.1200000000000D+00  0.0000000000000D+00  0.0000000000000D+00
314  3.1300000000000D+00  0.0000000000000D+00  0.0000000000000D+00
315  3.1400000000000D+00  0.0000000000000D+00  0.0000000000000D+00
316  3.1500000000000D+00  0.0000000000000D+00  0.0000000000000D+00
317  3.1600000000000D+00  0.0000000000000D+00  0.0000000000000D+00
318  3.1700000000000D+00  0.0000000000000D+00  0.0000000000000D+00
319  3.1800000000000D+00  0.0000000000000D+00  0.0000000000000D+00
320  3.1900000000000D+00  0.0000000000000D+00  0.0000000000000D+00
321  3.2000000000000D+00  0.0000000000000D+00  0.0000000000000D+00
322  3.2100000000000D+00  0.0000000000000D+00  0.0000000000000D+00
323  3.2200000000000D+00  0.0000000000000D+00  0.0000000000000D+00
324  3.2300000000000D+00  0.0000000000000D+00  0.0000000000000D+00
325  3.2400000000000D+00  0.0000000000000D+00  0.0000000000000D+00
326  3.2500000000000D+00  0.0000000000000D+00  0.0000000000000D+00
327  3.2600000000000D+00  0.0000000000000D+00  0.0000000000000D+00
328  3.2700000000000D+00  0.0000000000000D+00  0.0000000000000D+00
329  3.2800000000000D+00  0.0000000000000D+00  0.0000000000000D+00
330  3.2900000000000D+00  0.0000000000000D+00  0.0000000000000D+00
331  3.3000000000000D+00  0.0000000000000D+00  0.0000000000000D+00
332  3.3100000000000D+00  0.0000000000000D+00  0.0000000000000D+00
333  3.3200000000000D+00  0.0000000000000D+00  0.0000000000000D+00
334  3.3300000000000D+00  0.0000000000000D+00  0.0000000000000D+00
335  3.3400000000000D+00  0.0000000000000D+00  0.0000000000000D+00
336  3.3500000000000D+00  0.0000000000000D+00  0.0000000000000D+00
337  3.3600000000000D+00  0.0000000000000D+00  0.0000000000000D+00
338  3.3700000000000D+00  0.0000000000000D+00  0.0000000000000D+00
339  3.3800000000000D+00  0.0000000000000D+00  0.0000000000000D+00
340  3.3900000000000D+00  0.0000000000000D+00  0.0000000000000D+00
341  3.4000000000000D+00  0.0000000000000D+00  0.0000000000000D+00
342  3.4100000000000D+00  0.0000000000000D+00  0.0000000000000D+00
343  3.4200000000000D+00  0.0000000000000D+00  0.0000000000000D+00
344  3.4300000000000D+00  0.0000000000000D+00  0.0000000000000D+00
345  3.4400000000000D+00  0.0000000000000D+00  0.0000000000000D+00
346  3.4500000000000D+00  0.0000000000000D+00  0.0000000000000D+00
347  3.4600000000000D+00  0.0000000000000D+00  0.0000000000000D+00
348  3.4700000000000D+00  0.0000000000000D+00  0.0000000000000D+00
349  3.4800000000000D+00  0.0000000000000D+00  0.0000000000000D+00
350  3.4900000000000D+00  0.0000000000000D+00  0.0000000000000D+00
351  3.5000000000000D+00  0.0000000000000D+00  0.0000000000000D+00
352  3.5100000000000D+00  0.0000000000000D+00  0.0000000000000D+00
353  3.5200000000000D+00  0.0000000000000D+00  0.0000000000000D+00
354  3.5300000000000D+00  0.0000000000000D+00  0.0000000000000D+00
355  3.5400000000000D+00  0.0000000000000D+00  0.0000000000000D+00
356  3.5500000000000D+00  0.0000000000000D+00  0.0000000000000D+00
357  3.5600000000000D+00  0.0000000000000D+00  0.0000000000000D+00
358  3.5700000000000D+00  0.0000000000000D+00  0.0000000000000D+00
359  3.5800000000000D+00  0.0000000000000D+00  0.0000000000000D+00
360  3.5900000000000D+00  0.0000000000000D+00  0.0000000000000D+00
361  3.6000000000000D+00  0.0000000000000D+00  0.0000000000000D+00
362  3.6100000000000D+00  0.0000000000000D+00  0.0000000000000D+00
363  3.6200000000000D+00  0.0000000000000D+00  0.0000000000000D+00
364  3.6300000000000D+00  0.0000000000000D+00  0.0000000000000D+00
365  3.6400000000000D+00  0.0000000000000D+00  0.0000000000000D+00
366  3.6500000000000D+00  0.0000000000000D+00  0.0000000000000D+00
367  3.6600000000000D+00  0.0000000000000D+00  0.0000000000000D+00
368  3.6700000000000D+00  0.0000000000000D+00  0.0000000000000D+00
369  3.6800000000000D+00  0.0000000000000D+00  0.0000000000000D+00
370  3.6900000000000D+00  0.0000000000000D+00  0.0000000000000D+00
371  3.7000000000000D+00  0.0000000000000D+00  0.0000000000000D+00
372  3.7100000000000D+00  0.0000000000000D+00  0.0000000000000D+00
373  3.7200000000000D+00  0.0000000000000D+00  0.0000000000000D+00
374  3.7300000000000D+00  0.0000000000000D+00  0.0000000000000D+00
375  3.7400000000000D+00  0.0000000000000D+00  0.0000000000000D+00
376  3.7500000000000D+00  0.0000000000000D+00  0.0000000000000D+00
377  3.7600000000000D+00  0.0000000000000D+00  0.0000000000000D+00
378  3.7700000000000D+00  0.0000000000000D+00  0.0000000000000D+00
379  3.7800000000000D+00  0.0000000000000D+00  0.0000000000000D+00
380  3.7900000000000D+00  0.0000000000000D+00  0.0000000000000D+00
381  3.8000000000000D+00  0.0000000000000D+00  0.0000000000000D+00
382  3.8100000000000D+00  0.0000000000000D+00  0.0000000000000D+00
383  3.8200000000000D+00  0.0000000000000D+00  0.0000000000000D+00
384  3.8300000000000D+00  0.0000000000000D+00  0.0000000000000D+00
385  3.8400000000000D+00  0.0000000000000D+00  0.0000000000000D+00
386  3.8500000000000D+00  0.0000000000000D+00  0.0000000000000D+00
387  3.8600000000000D+00  0.0000000000000D+00  0.0000000000000D+00
388  3.8700000000000D+00  0.0000000000000D+00  0.0000000000000D+00
389  3.8800000000000D+00  0.0000000000000D+00  0.0000000000000D+00
390  3.8900000000000D+00  0.0000000000000D+00  0.0000000000000D+00
391  3.9000000000000D+00  0.0000000000000D+00  0.0000000000000D+00
392  3.9100000000000D+00  0.0000000000000D+00  0.0000000000000D+00
393  3.9200000000000D+00  0.0000000000000D+00  0.0000000000000D+00
394  3.9300000000000D+00  0.0000000000000D+00  0.0000000000000D+00
395  3.9400000000000D+00  0.0000000000000D+00  0.0000000000000D+00
396  3.9500000000000D+00  0.0000000000000D+00  0.0000000000000D+00
397  3.9600000000000D+00  0.0000000000000D+00  0.0000000000000D+00
398  3.9700000000000D+00  0.0000000000000D+00  0.0000000000000D+00
399  3.9800000000000D+00  0.0000000000000D+00  0.0000000000000D+00
400  3.9900000000000D+00  0.0000000000000D+00  0.0000000000000D+00
401  4.0000000000000D+00  0.0000000000000D+00  0.0000000000000D+00
402  4.0100000000000D+00  0.0000000000000D+00  0.0000000000000D+00
403  4.0200000000000D+00  0.0000000000000D+00  0.0000000000000D+00
404  4.0300000000000D+00  0.0000000000000D+00  0.0000000000000D+00
405  4.0400000000000D+00  0.0000000000000D+00  0.0000000000000D+00
406  4.0500000000000D+00  0.0000000000000D+00  0.0000000000000D+00
407  4.0600000000000D+00  0.0000000000000D+00  0.0000000000000D+00
408  4.0700000000000D+00  0.0000000000000D+00  0.0000000000000D+00
409  4.0800000000000D+00  0.0000000000000D+00  0.0000000000000D+00
410  4.0900000000000D+00  0.0000000000000D+00  0.0000000000000D+00
411  4.1000000000000D+00  0.0000000000000D+00  0.0000000000000D+00
412  4.1100000000000D+00  0.0000000000000D+00  0.0000000000000D+00
413  4.1200000000000D+00  0.0000000000000D+00  0.0000000000000D+00
414  4.1300000000000D+00  0.0000000000000D+00  0.0000000000000D+00
415  4.1400000000000D+00  0.0000000000000D+00  0.0000000000000D+00
416  4.1500000000000D+00  0.0000000000000D+00  0.0000000000000D+00
417  4.1600000000000D+00  0.0000000000000D+00  0.0000000000000D+00
418  4.1700000000000D+00  0.0000000000000D+00  0.0000000000000D+00
419  4.1800000000000D+00  0.0000000000000D+00  0.0000000000000D+00
420  4.1900000000000D+00  0.0000000000000D+00  0.0000000000000D+00
421  4.2000000000000D+00  0.0000000000000D+00  0.0000000000000D+00
422  4.2100000000000D+00  0.0000000000000D+00  0.0000000000000D+00
423  4.2200000000000D+00  0.0000000000000D+00  0.0000000000000D+00
424  4.2300000000000D+00  0.0000000000000D+00  0.0000000000000D+00
425  4.2400000000000D+00  0.0000000000000D+00  0.0000000000000D+00
426  4.2500000000000D+00  0.0000000000000D+00  0.0000000000000D+00
427  4.2600000000000D+00  0.0000000000000D+00  0.0000000000000D+00
428  4.2700000000000D+00  0.0000000000000D+00  0.0000000000000D+00
429  4.2800000000000D+00  0.0000000000000D+00  0.0000000000000D+00
430  4.2900000000000D+00  0.0000000000000D+00  0.0000000000000D+00
431  4.3000000000000D+00  0.0000000000000D+00  0.0000000000000D+00
432  4.3100000000000D+00  0.0000000000000D+00  0.0000000000000D+00
433  4.3200000000000D+00  0.0000000000000D+00  0.0000000000000D+00
434  4.3300000000000D+00  0.0000000000000D+00  0.0000000000000D+00
435  4.3400000000000D+00  0.0000000000000D+00  0.0000000000000D+00
436  4.3500000000000D+00  0.0000000000000D+00  0.0000000000000D+00
437  4.3600000000000D+00  0.0000000000000D+00  0.0000000000000D+00
438  4.3700000000000D+00  0.0000000000000D+00  0.0000000000000D+00
439  4.3800000000000D+00  0.0000000000000D+00  0.0000000000000D+00
440  4.3900000000000D+00  0.0000000000000D+00  0.0000000000000D+00
441  4.4000000000000D+00  0.0000000000000D+00  0.0000000000000D+00
442  4.4100000000000D+00  0.0000000000000D+00  0.0000000000000D+00
443  4.4200000000000D+00  0.0000000000000D+00  0.0000000000000D+00