Ca    ONCVPSP-3.3.0  r_core=   1.45885   1.45885   1.85192
20.0000     10.0000      180429    zatom,zion,pspd
8 -116133   2     4   400     0    pspcod,pspxc,lmax,lloc,mmax,r2well
3.99000000  6.00000000  0.00000000    rchrg fchrg qchrg
2     3     2     0    nproj
3     1           extension_switch
4     2     0    nprojso
0                         9.7355848650085D-01  1.0055048458031D+01
1  0.0000000000000D+00  1.3718484126457D-09 -3.3081570816051D-10
2  1.0000000000000D-02 -3.9555354270627D-02  7.1173103888786D-02
3  2.0000000000000D-02 -7.8860419198110D-02  1.4218713042790D-01
4  3.0000000000000D-02 -1.1766694790107D-01  2.1288367638959D-01
5  4.0000000000000D-02 -1.5573075323596D-01  2.8310568049526D-01
6  5.0000000000000D-02 -1.9281367505717D-01  3.5269807873912D-01
7  6.0000000000000D-02 -2.2868547333671D-01  4.2150844116962D-01
8  7.0000000000000D-02 -2.6312562406533D-01  4.8938758434230D-01
9  8.0000000000000D-02 -2.9592499622866D-01  5.5619015398878D-01
10  9.0000000000000D-02 -3.2688738983018D-01  6.2177517285075D-01
11  1.0000000000000D-01 -3.5583091689306D-01  6.8600654910081D-01
12  1.1000000000000D-01 -3.8258920958806D-01  7.4875354130500D-01
13  1.2000000000000D-01 -4.0701244207291D-01  8.0989117646940D-01
14  1.3000000000000D-01 -4.2896815525499D-01  8.6930061834487D-01
15  1.4000000000000D-01 -4.4834187646705D-01  9.2686948383200D-01
16  1.5000000000000D-01 -4.6503752893472D-01  9.8249210602246D-01
17  1.6000000000000D-01 -4.7897762887378D-01  1.0360697431231D+00
18  1.7000000000000D-01 -4.9010327104215D-01  1.0875107332257D+00
19  1.8000000000000D-01 -4.9837390654340D-01  1.1367305955954D+00
20  1.9000000000000D-01 -5.0376691959214D-01  1.1836520798507D+00
21  2.0000000000000D-01 -5.0627701276559D-01  1.2282051650750D+00
22  2.1000000000000D-01 -5.0591541293793D-01  1.2703270115396D+00
23  2.2000000000000D-01 -5.0270891258682D-01  1.3099618683099D+00
24  2.3000000000000D-01 -4.9669876343759D-01  1.3470609405425D+00
25  2.4000000000000D-01 -4.8793944143664D-01  1.3815822207635D+00
26  2.5000000000000D-01 -4.7649730379096D-01  1.4134902888229D+00
27  2.6000000000000D-01 -4.6244916024979D-01  1.4427560855581D+00
28  2.7000000000000D-01 -4.4588078191491D-01  1.4693566654533D+00
29  2.8000000000000D-01 -4.2688537163003D-01  1.4932749337526D+00
30  2.9000000000000D-01 -4.0556202040553D-01  1.5144993735706D+00
31  3.0000000000000D-01 -3.8201417437439D-01  1.5330237685386D+00
32  3.1000000000000D-01 -3.5634813644664D-01  1.5488469264369D+00
33  3.2000000000000D-01 -3.2867162613552D-01  1.5619724090797D+00
34  3.3000000000000D-01 -2.9909241997862D-01  1.5724082734597D+00
35  3.4000000000000D-01 -2.6771709358331D-01  1.5801668288129D+00
36  3.5000000000000D-01 -2.3464988460763D-01  1.5852644138405D+00
37  3.6000000000000D-01 -1.9999169396968D-01  1.5877211978376D+00
38  3.7000000000000D-01 -1.6383924028582D-01  1.5875610089191D+00
39  3.8000000000000D-01 -1.2628438000656D-01  1.5848111919253D+00
40  3.9000000000000D-01 -8.7413602982209D-02  1.5795024979346D+00
41  4.0000000000000D-01 -4.7307710287510D-02  1.5716690066162D+00
42  4.1000000000000D-01 -6.0416781106477D-03  1.5613480819399D+00
43  4.2000000000000D-01  3.6315291593393D-02  1.5485803610282D+00
44  4.3000000000000D-01  7.9699536121674D-02  1.5334097751980D+00
45  4.4000000000000D-01  1.2405251827483D-01  1.5158836015140D+00
46  4.5000000000000D-01  1.6932024246590D-01  1.4960525424674D+00
47  4.6000000000000D-01  2.1545251226596D-01  1.4739708307161D+00
48  4.7000000000000D-01  2.6240204377165D-01  1.4496963551895D+00
49  4.8000000000000D-01  3.1012345178612D-01  1.4232908042771D+00
50  4.9000000000000D-01  3.5857212817620D-01  1.3948198213038D+00
51  5.0000000000000D-01  4.0770303386240D-01  1.3643531670438D+00
52  5.1000000000000D-01  4.5746942768347D-01  1.3319648836603D+00
53  5.2000000000000D-01  5.0782155681989D-01  1.2977334541761D+00
54  5.3000000000000D-01  5.5870533453779D-01  1.2617419513929D+00
55  5.4000000000000D-01  6.1006103170380D-01  1.2240781700873D+00
56  5.5000000000000D-01  6.6182200880705D-01  1.1848347363217D+00
57  5.6000000000000D-01  7.1391351509930D-01  1.1441091878215D+00
58  5.7000000000000D-01  7.6625158092027D-01  1.1020040195873D+00
59  5.8000000000000D-01  8.1874202831955D-01  1.0586266892260D+00
60  5.9000000000000D-01  8.7127962372370D-01  1.0140895769041D+00
61  6.0000000000000D-01  9.2374739464570D-01  9.6850989533386D-01
62  6.1000000000000D-01  9.7601613030579D-01  9.2200954580744D-01
63  6.2000000000000D-01  1.0279440835732D+00  8.7471491696959D-01
64  6.3000000000000D-01  1.0793768888438D+00  8.2675662377970D-01
65  6.4000000000000D-01  1.1301477074258D+00  7.7826918492669D-01
66  6.5000000000000D-01  1.1800776087024D+00  7.2939063783334D-01
67  6.6000000000000D-01  1.2289761918550D+00  6.8026209129773D-01
68  6.7000000000000D-01  1.2766424493189D+00  6.3102721675536D-01
69  6.8000000000000D-01  1.3228658694102D+00  5.8183168010284D-01
70  6.9000000000000D-01  1.3674277718217D+00  5.3282251697711D-01
71  7.0000000000000D-01  1.4101028659368D+00  4.8414745532772D-01
72  7.1000000000000D-01  1.4506610182675D+00  4.3595419003146D-01
73  7.2000000000000D-01  1.4888692117601D+00  3.8838961517846D-01
74  7.3000000000000D-01  1.5244936763734D+00  3.4159902047503D-01
75  7.4000000000000D-01  1.5573021672075D+00  2.9572525896317D-01
76  7.5000000000000D-01  1.5870663636147D+00  2.5090789393039D-01
77  7.6000000000000D-01  1.6135643602223D+00  2.0728233346419D-01
78  7.7000000000000D-01  1.6365832186415D+00  1.6497896158937D-01
79  7.8000000000000D-01  1.6559215469094D+00  1.2412227529610D-01
80  7.9000000000000D-01  1.6713920724085D+00  8.4830037020527D-02
81  8.0000000000000D-01  1.6828241731783D+00  4.7212452270100D-02
82  8.1000000000000D-01  1.6900663321814D+00  1.1371382087405D-02
83  8.2000000000000D-01  1.6929884792347D+00 -2.2600400081761D-02
84  8.3000000000000D-01  1.6914841859650D+00 -5.4619897810337D-02
85  8.4000000000000D-01  1.6854726802992D+00 -8.4614518486105D-02
86  8.5000000000000D-01  1.6749006486390D+00 -1.1252262908323D-01
87  8.6000000000000D-01  1.6597437959925D+00 -1.3829403315014D-01
88  8.7000000000000D-01  1.6400081369025D+00 -1.6189036201007D-01
89  8.8000000000000D-01  1.6157309930094D+00 -1.8328537403327D-01
90  8.9000000000000D-01  1.5869816764689D+00 -2.0246515680037D-01
91  9.0000000000000D-01  1.5538618421715D+00 -2.1942822802219D-01
92  9.1000000000000D-01  1.5165054957373D+00 -2.3418553220072D-01
93  9.2000000000000D-01  1.4750786485272D+00 -2.4676033119349D-01
94  9.3000000000000D-01  1.4297786153703D+00 -2.5718798806528D-01
95  9.4000000000000D-01  1.3808329552924D+00 -2.6551564486028D-01
96  9.5000000000000D-01  1.3284980601762D+00 -2.7180179618753D-01
97  9.6000000000000D-01  1.2730574009294D+00 -2.7611576176504D-01
98  9.7000000000000D-01  1.2148194453560D+00 -2.7853706230871D-01
99  9.8000000000000D-01  1.1541152662961D+00 -2.7915470432098D-01
100  9.9000000000000D-01  1.0912958629378D+00 -2.7806638048873D-01
101  1.0000000000000D+00  1.0267292221766D+00 -2.7537759345356D-01
102  1.0100000000000D+00  9.6079715056641D-01 -2.7120071168524D-01
103  1.0200000000000D+00  8.9389191073199D-01 -2.6565396706142D-01
104  1.0300000000000D+00  8.2641269898807D-01 -2.5886040450820D-01
105  1.0400000000000D+00  7.5876200336785D-01 -2.5094679468915D-01
106  1.0500000000000D+00  6.9134188305692D-01 -2.4204252119067D-01
107  1.0600000000000D+00  6.2455021178061D-01 -2.3227845403871D-01
108  1.0700000000000D+00  5.5877692834792D-01 -2.2178582153493D-01
109  1.0800000000000D+00  4.9440033786174D-01 -2.1069509245645D-01
110  1.0900000000000D+00  4.3178350658314D-01 -1.9913488049868D-01
111  1.1000000000000D+00  3.7127079276218D-01 -1.8723088263960D-01
112  1.1100000000000D+00  3.1318455390377D-01 -1.7510486258371D-01
113  1.1200000000000D+00  2.5782206900872D-01 -1.6287368991051D-01
114  1.1300000000000D+00  2.0545271136406D-01 -1.5064844473793D-01
115  1.1400000000000D+00  1.5631540475968D-01 -1.3853359697468D-01
116  1.1500000000000D+00  1.1061639201981D-01 -1.2662626815128D-01
117  1.1600000000000D+00  6.8527340659609D-02 -1.1501558271660D-01
118  1.1700000000000D+00  3.0183805591122D-02 -1.0378211436914D-01
119  1.1800000000000D+00 -4.3159346030721D-03 -9.2997432073770D-02
120  1.1900000000000D+00 -3.4911657907742D-02 -8.2723748641291D-02
121  1.2000000000000D+00 -6.1581590373316D-02 -7.3013673496091D-02
122  1.2100000000000D+00 -8.4342409083361D-02 -6.3910069794132D-02
123  1.2200000000000D+00 -1.0324886092762D-01 -5.5446014947207D-02
124  1.2300000000000D+00 -1.1839300919253D-01 -4.7644861556922D-02
125  1.2400000000000D+00 -1.2990312449313D-01 -4.0520394556578D-02
126  1.2500000000000D+00 -1.3794223895594D-01 -3.4077079720771D-02
127  1.2600000000000D+00 -1.4270639185777D-01 -2.8310396220406D-02
128  1.2700000000000D+00 -1.4442260459206D-01 -2.3207243800524D-02
129  1.2800000000000D+00 -1.4334657196471D-01 -1.8746425235895D-02
130  1.2900000000000D+00 -1.3976027070442D-01 -1.4899161017756D-02
131  1.3000000000000D+00 -1.3396886621834D-01 -1.1629760241323D-02
132  1.3100000000000D+00 -1.2629936452125D-01 -8.8959460511092D-03
133  1.3200000000000D+00 -1.1709511045420D-01 -6.6500320446783D-03
134  1.3300000000000D+00 -1.0670693678376D-01 -4.8407808100132D-03
135  1.3400000000000D+00 -9.5483771561397D-02 -3.4154715743229D-03
136  1.3500000000000D+00 -8.3765329289081D-02 -2.3215704317334D-03
137  1.3600000000000D+00 -7.1879456844910D-02 -1.5074880876248D-03
138  1.3700000000000D+00 -6.0137931275557D-02 -9.2363402385163D-04
139  1.3800000000000D+00 -4.8832797720470D-02 -5.2335499716961D-04
140  1.3900000000000D+00 -3.8232894968879D-02 -2.6382465815145D-04
141  1.4000000000000D+00 -2.8580705428177D-02 -1.0685359090343D-04
142  1.4100000000000D+00 -2.0091907393492D-02 -1.9584899797676D-05
143  1.4200000000000D+00 -1.2945713744735D-02  2.4762681988631D-05
144  1.4300000000000D+00 -7.2527800235214D-03  4.5419267608107D-05
145  1.4400000000000D+00 -3.2136865454400D-03  5.8255779619256D-05
146  1.4500000000000D+00 -9.8554669641458D-04  7.3751022735602D-05
147  1.4600000000000D+00 -1.2649686671032D-04  6.8300434124933D-05
148  1.4700000000000D+00  3.3834212453366D-05  2.5954043857508D-05
149  1.4800000000000D+00 -1.3816147179607D-05 -5.8866775781500D-06
150  1.4900000000000D+00 -1.3311523144512D-05 -4.3353316835133D-06
151  1.5000000000000D+00  2.6192989147452D-06  1.6086417495019D-06
152  1.5100000000000D+00  1.0303468102762D-06  5.3996885583426D-07
153  1.5200000000000D+00  5.0657348863271D-07 -2.0220132995998D-07
154  1.5300000000000D+00  1.2320907334000D-08 -4.9179515019087D-09
155  1.5400000000000D+00  0.0000000000000D+00  0.0000000000000D+00
156  1.5500000000000D+00  0.0000000000000D+00  0.0000000000000D+00
157  1.5600000000000D+00  0.0000000000000D+00  0.0000000000000D+00
158  1.5700000000000D+00  0.0000000000000D+00  0.0000000000000D+00
159  1.5800000000000D+00  0.0000000000000D+00  0.0000000000000D+00
160  1.5900000000000D+00  0.0000000000000D+00  0.0000000000000D+00
161  1.6000000000000D+00  0.0000000000000D+00  0.0000000000000D+00
162  1.6100000000000D+00  0.0000000000000D+00  0.0000000000000D+00
163  1.6200000000000D+00  0.0000000000000D+00  0.0000000000000D+00
164  1.6300000000000D+00  0.0000000000000D+00  0.0000000000000D+00
165  1.6400000000000D+00  0.0000000000000D+00  0.0000000000000D+00
166  1.6500000000000D+00  0.0000000000000D+00  0.0000000000000D+00
167  1.6600000000000D+00  0.0000000000000D+00  0.0000000000000D+00
168  1.6700000000000D+00  0.0000000000000D+00  0.0000000000000D+00
169  1.6800000000000D+00  0.0000000000000D+00  0.0000000000000D+00
170  1.6900000000000D+00  0.0000000000000D+00  0.0000000000000D+00
171  1.7000000000000D+00  0.0000000000000D+00  0.0000000000000D+00
172  1.7100000000000D+00  0.0000000000000D+00  0.0000000000000D+00
173  1.7200000000000D+00  0.0000000000000D+00  0.0000000000000D+00
174  1.7300000000000D+00  0.0000000000000D+00  0.0000000000000D+00
175  1.7400000000000D+00  0.0000000000000D+00  0.0000000000000D+00
176  1.7500000000000D+00  0.0000000000000D+00  0.0000000000000D+00
177  1.7600000000000D+00  0.0000000000000D+00  0.0000000000000D+00
178  1.7700000000000D+00  0.0000000000000D+00  0.0000000000000D+00
179  1.7800000000000D+00  0.0000000000000D+00  0.0000000000000D+00
180  1.7900000000000D+00  0.0000000000000D+00  0.0000000000000D+00
181  1.8000000000000D+00  0.0000000000000D+00  0.0000000000000D+00
182  1.8100000000000D+00  0.0000000000000D+00  0.0000000000000D+00
183  1.8200000000000D+00  0.0000000000000D+00  0.0000000000000D+00
184  1.8300000000000D+00  0.0000000000000D+00  0.0000000000000D+00
185  1.8400000000000D+00  0.0000000000000D+00  0.0000000000000D+00
186  1.8500000000000D+00  0.0000000000000D+00  0.0000000000000D+00
187  1.8600000000000D+00  0.0000000000000D+00  0.0000000000000D+00
188  1.8700000000000D+00  0.0000000000000D+00  0.0000000000000D+00
189  1.8800000000000D+00  0.0000000000000D+00  0.0000000000000D+00
190  1.8900000000000D+00  0.0000000000000D+00  0.0000000000000D+00
191  1.9000000000000D+00  0.0000000000000D+00  0.0000000000000D+00
192  1.9100000000000D+00  0.0000000000000D+00  0.0000000000000D+00
193  1.9200000000000D+00  0.0000000000000D+00  0.0000000000000D+00
194  1.9300000000000D+00  0.0000000000000D+00  0.0000000000000D+00
195  1.9400000000000D+00  0.0000000000000D+00  0.0000000000000D+00
196  1.9500000000000D+00  0.0000000000000D+00  0.0000000000000D+00
197  1.9600000000000D+00  0.0000000000000D+00  0.0000000000000D+00
198  1.9700000000000D+00  0.0000000000000D+00  0.0000000000000D+00
199  1.9800000000000D+00  0.0000000000000D+00  0.0000000000000D+00
200  1.9900000000000D+00  0.0000000000000D+00  0.0000000000000D+00
201  2.0000000000000D+00  0.0000000000000D+00  0.0000000000000D+00
202  2.0100000000000D+00  0.0000000000000D+00  0.0000000000000D+00
203  2.0200000000000D+00  0.0000000000000D+00  0.0000000000000D+00
204  2.0300000000000D+00  0.0000000000000D+00  0.0000000000000D+00
205  2.0400000000000D+00  0.0000000000000D+00  0.0000000000000D+00
206  2.0500000000000D+00  0.0000000000000D+00  0.0000000000000D+00
207  2.0600000000000D+00  0.0000000000000D+00  0.0000000000000D+00
208  2.0700000000000D+00  0.0000000000000D+00  0.0000000000000D+00
209  2.0800000000000D+00  0.0000000000000D+00  0.0000000000000D+00
210  2.0900000000000D+00  0.0000000000000D+00  0.0000000000000D+00
211  2.1000000000000D+00  0.0000000000000D+00  0.0000000000000D+00
212  2.1100000000000D+00  0.0000000000000D+00  0.0000000000000D+00
213  2.1200000000000D+00  0.0000000000000D+00  0.0000000000000D+00
214  2.1300000000000D+00  0.0000000000000D+00  0.0000000000000D+00
215  2.1400000000000D+00  0.0000000000000D+00  0.0000000000000D+00
216  2.1500000000000D+00  0.0000000000000D+00  0.0000000000000D+00
217  2.1600000000000D+00  0.0000000000000D+00  0.0000000000000D+00
218  2.1700000000000D+00  0.0000000000000D+00  0.0000000000000D+00
219  2.1800000000000D+00  0.0000000000000D+00  0.0000000000000D+00
220  2.1900000000000D+00  0.0000000000000D+00  0.0000000000000D+00
221  2.2000000000000D+00  0.0000000000000D+00  0.0000000000000D+00
222  2.2100000000000D+00  0.0000000000000D+00  0.0000000000000D+00
223  2.2200000000000D+00  0.0000000000000D+00  0.0000000000000D+00
224  2.2300000000000D+00  0.0000000000000D+00  0.0000000000000D+00
225  2.2400000000000D+00  0.0000000000000D+00  0.0000000000000D+00
226  2.2500000000000D+00  0.0000000000000D+00  0.0000000000000D+00
227  2.2600000000000D+00  0.0000000000000D+00  0.0000000000000D+00
228  2.2700000000000D+00  0.0000000000000D+00  0.0000000000000D+00
229  2.2800000000000D+00  0.0000000000000D+00  0.0000000000000D+00
230  2.2900000000000D+00  0.0000000000000D+00  0.0000000000000D+00
231  2.3000000000000D+00  0.0000000000000D+00  0.0000000000000D+00
232  2.3100000000000D+00  0.0000000000000D+00  0.0000000000000D+00
233  2.3200000000000D+00  0.0000000000000D+00  0.0000000000000D+00
234  2.3300000000000D+00  0.0000000000000D+00  0.0000000000000D+00
235  2.3400000000000D+00  0.0000000000000D+00  0.0000000000000D+00
236  2.3500000000000D+00  0.0000000000000D+00  0.0000000000000D+00
237  2.3600000000000D+00  0.0000000000000D+00  0.0000000000000D+00
238  2.3700000000000D+00  0.0000000000000D+00  0.0000000000000D+00
239  2.3800000000000D+00  0.0000000000000D+00  0.0000000000000D+00
240  2.3900000000000D+00  0.0000000000000D+00  0.0000000000000D+00
241  2.4000000000000D+00  0.0000000000000D+00  0.0000000000000D+00
242  2.4100000000000D+00  0.0000000000000D+00  0.0000000000000D+00
243  2.4200000000000D+00  0.0000000000000D+00  0.0000000000000D+00
244  2.4300000000000D+00  0.0000000000000D+00  0.0000000000000D+00
245  2.4400000000000D+00  0.0000000000000D+00  0.0000000000000D+00
246  2.4500000000000D+00  0.0000000000000D+00  0.0000000000000D+00
247  2.4600000000000D+00  0.0000000000000D+00  0.0000000000000D+00
248  2.4700000000000D+00  0.0000000000000D+00  0.0000000000000D+00
249  2.4800000000000D+00  0.0000000000000D+00  0.0000000000000D+00
250  2.4900000000000D+00  0.0000000000000D+00  0.0000000000000D+00
251  2.5000000000000D+00  0.0000000000000D+00  0.0000000000000D+00
252  2.5100000000000D+00  0.0000000000000D+00  0.0000000000000D+00
253  2.5200000000000D+00  0.0000000000000D+00  0.0000000000000D+00
254  2.5300000000000D+00  0.0000000000000D+00  0.0000000000000D+00
255  2.5400000000000D+00  0.0000000000000D+00  0.0000000000000D+00
256  2.5500000000000D+00  0.0000000000000D+00  0.0000000000000D+00
257  2.5600000000000D+00  0.0000000000000D+00  0.0000000000000D+00
258  2.5700000000000D+00  0.0000000000000D+00  0.0000000000000D+00
259  2.5800000000000D+00  0.0000000000000D+00  0.0000000000000D+00
260  2.5900000000000D+00  0.0000000000000D+00  0.0000000000000D+00
261  2.6000000000000D+00  0.0000000000000D+00  0.0000000000000D+00
262  2.6100000000000D+00  0.0000000000000D+00  0.0000000000000D+00
263  2.6200000000000D+00  0.0000000000000D+00  0.0000000000000D+00
264  2.6300000000000D+00  0.0000000000000D+00  0.0000000000000D+00
265  2.6400000000000D+00  0.0000000000000D+00  0.0000000000000D+00
266  2.6500000000000D+00  0.0000000000000D+00  0.0000000000000D+00
267  2.6600000000000D+00  0.0000000000000D+00  0.0000000000000D+00
268  2.6700000000000D+00  0.0000000000000D+00  0.0000000000000D+00
269  2.6800000000000D+00  0.0000000000000D+00  0.0000000000000D+00
270  2.6900000000000D+00  0.0000000000000D+00  0.0000000000000D+00
271  2.7000000000000D+00  0.0000000000000D+00  0.0000000000000D+00
272  2.7100000000000D+00  0.0000000000000D+00  0.0000000000000D+00
273  2.7200000000000D+00  0.0000000000000D+00  0.0000000000000D+00
274  2.7300000000000D+00  0.0000000000000D+00  0.0000000000000D+00
275  2.7400000000000D+00  0.0000000000000D+00  0.0000000000000D+00
276  2.7500000000000D+00  0.0000000000000D+00  0.0000000000000D+00
277  2.7600000000000D+00  0.0000000000000D+00  0.0000000000000D+00
278  2.7700000000000D+00  0.0000000000000D+00  0.0000000000000D+00
279  2.7800000000000D+00  0.0000000000000D+00  0.0000000000000D+00
280  2.7900000000000D+00  0.0000000000000D+00  0.0000000000000D+00
281  2.8000000000000D+00  0.0000000000000D+00  0.0000000000000D+00
282  2.8100000000000D+00  0.0000000000000D+00  0.0000000000000D+00
283  2.8200000000000D+00  0.0000000000000D+00  0.0000000000000D+00
284  2.8300000000000D+00  0.0000000000000D+00  0.0000000000000D+00
285  2.8400000000000D+00  0.0000000000000D+00  0.0000000000000D+00
286  2.8500000000000D+00  0.0000000000000D+00  0.0000000000000D+00
287  2.8600000000000D+00  0.0000000000000D+00  0.0000000000000D+00
288  2.8700000000000D+00  0.0000000000000D+00  0.0000000000000D+00
289  2.8800000000000D+00  0.0000000000000D+00  0.0000000000000D+00
290  2.8900000000000D+00  0.0000000000000D+00  0.0000000000000D+00
291  2.9000000000000D+00  0.0000000000000D+00  0.0000000000000D+00
292  2.9100000000000D+00  0.0000000000000D+00  0.0000000000000D+00
293  2.9200000000000D+00  0.0000000000000D+00  0.0000000000000D+00
294  2.9300000000000D+00  0.0000000000000D+00  0.0000000000000D+00
295  2.9400000000000D+00  0.0000000000000D+00  0.0000000000000D+00
296  2.9500000000000D+00  0.0000000000000D+00  0.0000000000000D+00
297  2.9600000000000D+00  0.0000000000000D+00  0.0000000000000D+00
298  2.9700000000000D+00  0.0000000000000D+00  0.0000000000000D+00
299  2.9800000000000D+00  0.0000000000000D+00  0.0000000000000D+00
300  2.9900000000000D+00  0.0000000000000D+00  0.0000000000000D+00
301  3.0000000000000D+00  0.0000000000000D+00  0.0000000000000D+00
302  3.0100000000000D+00  0.0000000000000D+00  0.0000000000000D+00
303  3.0200000000000D+00  0.0000000000000D+00  0.0000000000000D+00
304  3.0300000000000D+00  0.0000000000000D+00  0.0000000000000D+00
305  3.0400000000000D+00  0.0000000000000D+00  0.0000000000000D+00
306  3.0500000000000D+00  0.0000000000000D+00  0.0000000000000D+00
307  3.0600000000000D+00  0.0000000000000D+00  0.0000000000000D+00
308  3.0700000000000D+00  0.0000000000000D+00  0.0000000000000D+00
309  3.0800000000000D+00  0.0000000000000D+00  0.0000000000000D+00
310  3.0900000000000D+00  0.0000000000000D+00  0.0000000000000D+00
311  3.1000000000000D+00  0.0000000000000D+00  0.0000000000000D+00
312  3.1100000000000D+00  0.0000000000000D+00  0.0000000000000D+00
313  3.1200000000000D+00  0.0000000000000D+00  0.0000000000000D+00
314  3.1300000000000D+00  0.0000000000000D+00  0.0000000000000D+00
315  3.1400000000000D+00  0.0000000000000D+00  0.0000000000000D+00
316  3.1500000000000D+00  0.0000000000000D+00  0.0000000000000D+00
317  3.1600000000000D+00  0.0000000000000D+00  0.0000000000000D+00
318  3.1700000000000D+00  0.0000000000000D+00  0.0000000000000D+00
319  3.1800000000000D+00  0.0000000000000D+00  0.0000000000000D+00
320  3.1900000000000D+00  0.0000000000000D+00  0.0000000000000D+00
321  3.2000000000000D+00  0.0000000000000D+00  0.0000000000000D+00
322  3.2100000000000D+00  0.0000000000000D+00  0.0000000000000D+00
323  3.2200000000000D+00  0.0000000000000D+00  0.0000000000000D+00
324  3.2300000000000D+00  0.0000000000000D+00  0.0000000000000D+00
325  3.2400000000000D+00  0.0000000000000D+00  0.0000000000000D+00
326  3.2500000000000D+00  0.0000000000000D+00  0.0000000000000D+00
327  3.2600000000000D+00  0.0000000000000D+00  0.0000000000000D+00
328  3.2700000000000D+00  0.0000000000000D+00  0.0000000000000D+00
329  3.2800000000000D+00  0.0000000000000D+00  0.0000000000000D+00
330  3.2900000000000D+00  0.0000000000000D+00  0.0000000000000D+00
331  3.3000000000000D+00  0.0000000000000D+00  0.0000000000000D+00
332  3.3100000000000D+00  0.0000000000000D+00  0.0000000000000D+00
333  3.3200000000000D+00  0.0000000000000D+00  0.0000000000000D+00
334  3.3300000000000D+00  0.0000000000000D+00  0.0000000000000D+00
335  3.3400000000000D+00  0.0000000000000D+00  0.0000000000000D+00
336  3.3500000000000D+00  0.0000000000000D+00  0.0000000000000D+00
337  3.3600000000000D+00  0.0000000000000D+00  0.0000000000000D+00
338  3.3700000000000D+00  0.0000000000000D+00  0.0000000000000D+00
339  3.3800000000000D+00  0.0000000000000D+00  0.0000000000000D+00
340  3.3900000000000D+00  0.0000000000000D+00  0.0000000000000D+00
341  3.4000000000000D+00  0.0000000000000D+00  0.0000000000000D+00
342  3.4100000000000D+00  0.0000000000000D+00  0.0000000000000D+00
343  3.4200000000000D+00  0.0000000000000D+00  0.0000000000000D+00
344  3.4300000000000D+00  0.0000000000000D+00  0.0000000000000D+00
345  3.4400000000000D+00  0.0000000000000D+00  0.0000000000000D+00
346  3.4500000000000D+00  0.0000000000000D+00  0.0000000000000D+00
347  3.4600000000000D+00  0.0000000000000D+00  0.0000000000000D+00
348  3.4700000000000D+00  0.0000000000000D+00  0.0000000000000D+00
349  3.4800000000000D+00  0.0000000000000D+00  0.0000000000000D+00
350  3.4900000000000D+00  0.0000000000000D+00  0.0000000000000D+00
351  3.5000000000000D+00  0.0000000000000D+00  0.0000000000000D+00
352  3.5100000000000D+00  0.0000000000000D+00  0.0000000000000D+00
353  3.5200000000000D+00  0.0000000000000D+00  0.0000000000000D+00
354  3.5300000000000D+00  0.0000000000000D+00  0.0000000000000D+00
355  3.5400000000000D+00  0.0000000000000D+00  0.0000000000000D+00
356  3.5500000000000D+00  0.0000000000000D+00  0.0000000000000D+00
357  3.5600000000000D+00  0.0000000000000D+00  0.0000000000000D+00
358  3.5700000000000D+00  0.0000000000000D+00  0.0000000000000D+00
359  3.5800000000000D+00  0.0000000000000D+00  0.0000000000000D+00
360  3.5900000000000D+00  0.0000000000000D+00  0.0000000000000D+00
361  3.6000000000000D+00  0.0000000000000D+00  0.0000000000000D+00
362  3.6100000000000D+00  0.0000000000000D+00  0.0000000000000D+00
363  3.6200000000000D+00  0.0000000000000D+00  0.0000000000000D+00
364  3.6300000000000D+00  0.0000000000000D+00  0.0000000000000D+00
365  3.6400000000000D+00  0.0000000000000D+00  0.0000000000000D+00
366  3.6500000000000D+00  0.0000000000000D+00  0.0000000000000D+00
367  3.6600000000000D+00  0.0000000000000D+00  0.0000000000000D+00
368  3.6700000000000D+00  0.0000000000000D+00  0.0000000000000D+00
369  3.6800000000000D+00  0.0000000000000D+00  0.0000000000000D+00
370  3.6900000000000D+00  0.0000000000000D+00  0.0000000000000D+00
371  3.7000000000000D+00  0.0000000000000D+00  0.0000000000000D+00
372  3.7100000000000D+00  0.0000000000000D+00  0.0000000000000D+00
373  3.7200000000000D+00  0.0000000000000D+00  0.0000000000000D+00
374  3.7300000000000D+00  0.0000000000000D+00  0.0000000000000D+00
375  3.7400000000000D+00  0.0000000000000D+00  0.0000000000000D+00
376  3.7500000000000D+00  0.0000000000000D+00  0.0000000000000D+00
377  3.7600000000000D+00  0.0000000000000D+00  0.0000000000000D+00
378  3.7700000000000D+00  0.0000000000000D+00  0.0000000000000D+00
379  3.7800000000000D+00  0.0000000000000D+00  0.0000000000000D+00
380  3.7900000000000D+00  0.0000000000000D+00  0.0000000000000D+00
381  3.8000000000000D+00  0.0000000000000D+00  0.0000000000000D+00
382  3.8100000000000D+00  0.0000000000000D+00  0.0000000000000D+00
383  3.8200000000000D+00  0.0000000000000D+00  0.0000000000000D+00
384  3.8300000000000D+00  0.0000000000000D+00  0.0000000000000D+00
385  3.8400000000000D+00  0.0000000000000D+00  0.0000000000000D+00
386  3.8500000000000D+00  0.0000000000000D+00  0.0000000000000D+00
387  3.8600000000000D+00  0.0000000000000D+00  0.0000000000000D+00
388  3.8700000000000D+00  0.0000000000000D+00  0.0000000000000D+00
389  3.8800000000000D+00  0.0000000000000D+00  0.0000000000000D+00
390  3.8900000000000D+00  0.0000000000000D+00  0.0000000000000D+00
391  3.9000000000000D+00  0.0000000000000D+00  0.0000000000000D+00
392  3.9100000000000D+00  0.0000000000000D+00  0.0000000000000D+00
393  3.9200000000000D+00  0.0000000000000D+00  0.0000000000000D+00
394  3.9300000000000D+00  0.0000000000000D+00  0.0000000000000D+00
395  3.9400000000000D+00  0.0000000000000D+00  0.0000000000000D+00
396  3.9500000000000D+00  0.0000000000000D+00  0.0000000000000D+00
397  3.9600000000000D+00  0.0000000000000D+00  0.0000000000000D+00
398  3.9700000000000D+00  0.0000000000000D+00  0.0000000000000D+00
399  3.9800000000000D+00  0.0000000000000D+00  0.0000000000000D+00
400  3.9900000000000D+00  0.0000000000000D+00  0.0000000000000D+00
1                         2.9995865449076D+00  4.5824625297507D-01  2.0546085346490D-05
1  0.0000000000000D+00  2.9794322287113D-09 -7.6086186934221D-09  1.5266095915178D-08
2  1.0000000000000D-02  2.0019756424316D-03 -1.3178537100144D-03  2.2292869909479D-03
3  2.0000000000000D-02  7.9955968876953D-03 -5.2531941181193D-03  8.8838293417738D-03
4  3.0000000000000D-02  1.7944066638719D-02 -1.1751625599245D-02  1.9864202167066D-02
5  4.0000000000000D-02  3.1786454522952D-02 -2.0723372861758D-02  3.5006458381559D-02
6  5.0000000000000D-02  4.9438288127714D-02 -3.2044591796665D-02  5.4084739200407D-02
7  6.0000000000000D-02  7.0792368932304D-02 -4.5559174380642D-02  7.6814867361796D-02
8  7.0000000000000D-02  9.5719801370195D-02 -6.1081017962791D-02  1.0285886268143D-01
9  8.0000000000000D-02  1.2407122047524D-01 -7.8396721656365D-02  1.3183030428224D-01
10  9.0000000000000D-02  1.5567820082287D-01 -9.7268665579079D-02  1.6330044953174D-01
11  1.0000000000000D-01  1.9035482701543D-01 -1.1743842245771D-01  1.9680500714712D-01
12  1.1000000000000D-01  2.2789940381968D-01 -1.3863044574024D-01  2.3185145100124D-01
13  1.2000000000000D-01  2.6809628227852D-01 -1.6055597393309D-01  2.6792675218877D-01
14  1.3000000000000D-01  3.1071777671718D-01 -1.8291708747871D-01  3.0450540000927D-01
15  1.4000000000000D-01  3.5552614656772D-01 -2.0541085216570D-01  3.4105757786296D-01
16  1.5000000000000D-01  4.0227561636130D-01 -2.2773348186463D-01  3.7705735758806D-01
17  1.6000000000000D-01  4.5071440709236D-01 -2.4958445332269D-01  4.1199077573425D-01
18  1.7000000000000D-01  5.0058675244550D-01 -2.7067050683833D-01  4.4536365748933D-01
19  1.8000000000000D-01  5.5163487408621D-01 -2.9070946884919D-01  4.7670905851435D-01
20  1.9000000000000D-01  6.0360089134016D-01 -3.0943383577164D-01  5.0559420169364D-01
21  2.0000000000000D-01  6.5622864210042D-01 -3.2659406276913D-01  5.3162679468182D-01
22  2.1000000000000D-01  7.0926539368184D-01 -3.4196150642888D-01  5.5446062496181D-01
23  2.2000000000000D-01  7.6246342455490D-01 -3.5533097650144D-01  5.7380034169687D-01
24  2.3000000000000D-01  8.1558146039776D-01 -3.6652285880195D-01  5.8940534786884D-01
25  2.4000000000000D-01  8.6838595066288D-01 -3.7538477896615D-01  6.0109274163201D-01
26  2.5000000000000D-01  9.2065217481499D-01 -3.8179278487022D-01  6.0873926241787D-01
27  2.6000000000000D-01  9.7216517050985D-01 -3.8565203402232D-01  6.1228221461319D-01
28  2.7000000000000D-01  1.0227204791938D+00 -3.8689698096889D-01  6.1171935945845D-01
29  2.8000000000000D-01  1.0721247078570D+00 -3.8549106858072D-01  6.0710778382668D-01
30  2.9000000000000D-01  1.1201959089138D+00 -3.8142593583997D-01  5.9856177235077D-01
31  3.0000000000000D-01  1.1667637833511D+00 -3.7472016328692D-01  5.8624972682746D-01
32  3.1000000000000D-01  1.2116697153332D+00 -3.6541758545679D-01  5.7039019347525D-01