F     ONCVPSP-3.3.0  r_core=   1.30942   1.45782   1.60379
9.0000      7.0000      180503    zatom,zion,pspd
8 -116133   2     4   600     0    pspcod,pspxc,lmax,lloc,mmax,r2well
5.99000000  2.50000000  0.00000000    rchrg fchrg qchrg
2     2     2     0    nproj
3     1           extension_switch
3     2     0    nprojso
0                         1.0658851032631D+00  6.5065592334635D+00
1  0.0000000000000D+00  5.6887646815440D-09 -2.2574956348720D-09
2  1.0000000000000D-02 -3.9473284368671D-02  9.9800961067428D-02
3  2.0000000000000D-02 -7.8478510949062D-02  1.9922163749618D-01
4  3.0000000000000D-02 -1.1655320275153D-01  2.9788450445806D-01
5  4.0000000000000D-02 -1.5324595753449D-01  3.9541752094330D-01
6  5.0000000000000D-02 -1.8812176954032D-01  4.9145678275245D-01
7  6.0000000000000D-02 -2.2076709659764D-01  5.8564907042721D-01
8  7.0000000000000D-02 -2.5079459452397D-01  6.7765425980254D-01
9  8.0000000000000D-02 -2.7784744645091D-01  7.6714756512001D-01
10  9.0000000000000D-02 -3.0160322162138D-01  8.5382158739126D-01
11  1.0000000000000D-01 -3.2177720625376D-01  9.3738814389425D-01
12  1.1000000000000D-01 -3.3812515809621D-01  1.0175798582686D+00
13  1.2000000000000D-01 -3.5044544614854D-01  1.0941514945898D+00
14  1.3000000000000D-01 -3.5858054754148D-01  1.1668810229757D+00
15  1.4000000000000D-01 -3.6241788455146D-01  1.2355704086466D+00
16  1.5000000000000D-01 -3.6188999600431D-01  1.3000461208386D+00
17  1.6000000000000D-01 -3.5697404868765D-01  1.3601593624911D+00
18  1.7000000000000D-01 -3.4769070565212D-01  1.4157860261082D+00
19  1.8000000000000D-01 -3.3410237923863D-01  1.4668263855575D+00
20  1.9000000000000D-01 -3.1631090713143D-01  1.5132045377362D+00
21  2.0000000000000D-01 -2.9445469952002D-01  1.5548676119412D+00
22  2.1000000000000D-01 -2.6870541438243D-01  1.5917847683466D+00
23  2.2000000000000D-01 -2.3926422582061D-01  1.6239460101643D+00
24  2.3000000000000D-01 -2.0635775713996D-01  1.6513608367807D+00
25  2.4000000000000D-01 -1.7023375584875D-01  1.6740567673798D+00
26  2.5000000000000D-01 -1.3115659185380D-01  1.6920777662325D+00
27  2.6000000000000D-01 -8.9402662772407D-02  1.7054826019369D+00
28  2.7000000000000D-01 -4.5255791407746D-02  1.7143431733947D+00
29  2.8000000000000D-01  9.9729997464440D-04  1.7187428352139D+00
30  2.9000000000000D-01  4.9071355885217D-02  1.7187747545214D+00
31  3.0000000000000D-01  9.8686715144653D-02  1.7145403298750D+00
32  3.1000000000000D-01  1.4957312542120D-01  1.7061477010906D+00
33  3.2000000000000D-01  2.0147317678429D-01  1.6937103763958D+00
34  3.3000000000000D-01  2.5414529386775D-01  1.6773460004078D+00
35  3.4000000000000D-01  3.0736623496231D-01  1.6571752830819D+00
36  3.5000000000000D-01  3.6093305607717D-01  1.6333211060315D+00
37  3.6000000000000D-01  4.1466450855700D-01  1.6059078185591D+00
38  3.7000000000000D-01  4.6840185002495D-01  1.5750607314252D+00
39  3.8000000000000D-01  5.2200906004613D-01  1.5409058119063D+00
40  3.9000000000000D-01  5.7537246375899D-01  1.5035695791286D+00
41  4.0000000000000D-01  6.2839977858835D-01  1.4631791941033D+00
42  4.1000000000000D-01  6.8101861081459D-01  1.4198627344098D+00
43  4.2000000000000D-01  7.3317444001147D-01  1.3737496391724D+00
44  4.3000000000000D-01  7.8482813996663D-01  1.3249713059254D+00
45  4.4000000000000D-01  8.3595309446273D-01  1.2736618172470D+00
46  4.5000000000000D-01  8.8653197502954D-01  1.2199587717436D+00
47  4.6000000000000D-01  9.3655325530697D-01  1.1640041911355D+00
48  4.7000000000000D-01  9.8600754282836D-01  1.1059454729143D+00
49  4.8000000000000D-01  1.0348838137121D+00  1.0459363563425D+00
50  4.9000000000000D-01  1.0831656388307D+00  9.8413786850123D-01
51  5.0000000000000D-01  1.1308274914295D+00  9.2071921669051D-01
52  5.1000000000000D-01  1.1778312258472D+00  8.5585859375605D-01
53  5.2000000000000D-01  1.2241228149227D+00  7.8974386388147D-01
54  5.3000000000000D-01  1.2696294298726D+00  7.2257309802168D-01
55  5.4000000000000D-01  1.3142569409464D+00  6.5455493044894D-01
56  5.5000000000000D-01  1.3578879100630D+00  5.8590871081336D-01
57  5.6000000000000D-01  1.4003801380443D+00  5.1686442962361D-01
58  5.7000000000000D-01  1.4415658190947D+00  4.4766239909478D-01
59  5.8000000000000D-01  1.4812513440064D+00  3.7855267580950D-01
60  5.9000000000000D-01  1.5192177813989D+00  3.0979421652335D-01
61  6.0000000000000D-01  1.5552220533042D+00  2.4165376363736D-01
62  6.1000000000000D-01  1.5889988078430D+00  1.7440446226238D-01
63  6.2000000000000D-01  1.6202629778526D+00  1.0832421630811D-01
64  6.3000000000000D-01  1.6487130002906D+00  4.3693796580552D-02
65  6.4000000000000D-01  1.6740346574806D+00 -1.9205280711575D-02
66  6.5000000000000D-01  1.6959054878106D+00 -8.0093081359229D-02
67  6.6000000000000D-01  1.7139997007930D+00 -1.3869375782527D-01
68  6.7000000000000D-01  1.7279935196373D+00 -1.9473819797978D-01
69  6.8000000000000D-01  1.7375708637804D+00 -2.4796678056700D-01
70  6.9000000000000D-01  1.7424292745871D+00 -2.9813219654692D-01
71  7.0000000000000D-01  1.7422859797017D+00 -3.4500229254581D-01
72  7.1000000000000D-01  1.7368839855360D+00 -3.8836289044786D-01
73  7.2000000000000D-01  1.7259980832315D+00 -4.2802053570662D-01
74  7.3000000000000D-01  1.7094406512700D+00 -4.6380512630466D-01
75  7.4000000000000D-01  1.6870671377515D+00 -4.9557237445140D-01
76  7.5000000000000D-01  1.6587811072961D+00 -5.2320605411077D-01
77  7.6000000000000D-01  1.6245387414746D+00 -5.4661998926150D-01
78  7.7000000000000D-01  1.5843526877130D+00 -5.6575974044317D-01
79  7.8000000000000D-01  1.5382951595302D+00 -5.8060395053930D-01
80  7.9000000000000D-01  1.4865002007448D+00 -5.9116531489053D-01
81  8.0000000000000D-01  1.4291650377227D+00 -5.9749114563357D-01
82  8.1000000000000D-01  1.3665504566734D+00 -5.9966350555589D-01
83  8.2000000000000D-01  1.2989801572069D+00 -5.9779889265526D-01
84  8.3000000000000D-01  1.2268390486247D+00 -5.9204746289918D-01
85  8.4000000000000D-01  1.1505704714429D+00 -5.8259178528837D-01
86  8.5000000000000D-01  1.0706723431949D+00 -5.6964513012679D-01
87  8.6000000000000D-01  9.8769224430786D-01 -5.5344929827268D-01
88  8.7000000000000D-01  9.0222147652993D-01 -5.3427200597035D-01
89  8.8000000000000D-01  8.1488814267801D-01 -5.1240384652139D-01
90  8.9000000000000D-01  7.2634931210608D-01 -4.8815485642777D-01
91  9.0000000000000D-01  6.3728235096362D-01 -4.6185071961435D-01
92  9.1000000000000D-01  5.4837550975983D-01 -4.3382864880458D-01
93  9.2000000000000D-01  4.6031787272080D-01 -4.0443298798315D-01
94  9.3000000000000D-01  3.7378877960881D-01 -3.7401058298873D-01
95  9.4000000000000D-01  2.8944685134591D-01 -3.4290597356632D-01
96  9.5000000000000D-01  2.0791884769384D-01 -3.1145648800289D-01
97  9.6000000000000D-01  1.2978792441000D-01 -2.7998714577860D-01
98  9.7000000000000D-01  5.5583964375197D-02 -2.4880608360736D-01
99  9.8000000000000D-01 -1.4212544858595D-02 -2.1820354922527D-01
100  9.9000000000000D-01 -7.9164165560930D-02 -1.8845198898503D-01
101  1.0000000000000D+00 -1.3888090577646D-01 -1.5980367840248D-01
102  1.0100000000000D+00 -1.9302696170287D-01 -1.3248789154467D-01
103  1.0200000000000D+00 -2.4132599025649D-01 -1.0670855638704D-01
104  1.0300000000000D+00 -2.8356569522262D-01 -8.2642225281845D-02
105  1.0400000000000D+00 -3.1960150238126D-01 -6.0436425972787D-02
106  1.0500000000000D+00 -3.4935924135029D-01 -4.0208424410940D-02
107  1.0600000000000D+00 -3.7283678741036D-01 -2.2044418894194D-02
108  1.0700000000000D+00 -3.9010462681070D-01 -5.9991799207181D-03
109  1.0800000000000D+00 -4.0130532577680D-01  7.9038566460739D-03
110  1.0900000000000D+00 -4.0665190191358D-01  1.9672042996154D-02
111  1.1000000000000D+00 -4.0642511264300D-01  2.9342525731239D-02
112  1.1100000000000D+00 -4.0096969454602D-01  3.6980819303277D-02
113  1.1200000000000D+00 -3.9068960406197D-01  4.2678967378110D-02
114  1.1300000000000D+00 -3.7604232652571D-01  4.6553319646452D-02
115  1.1400000000000D+00 -3.5753233541508D-01  4.8741957615042D-02
116  1.1500000000000D+00 -3.3570379775049D-01  4.9401808586395D-02
117  1.1600000000000D+00 -3.1113263575055D-01  4.8705492739342D-02
118  1.1700000000000D+00 -2.8441806448640D-01  4.6837952098638D-02
119  1.1800000000000D+00 -2.5617373369964D-01  4.3992913567209D-02
120  1.1900000000000D+00 -2.2701861063156D-01  4.0369241677703D-02
121  1.2000000000000D+00 -1.9756774493809D-01  3.6167238401165D-02
122  1.2100000000000D+00 -1.6842305786115D-01  3.1584947767064D-02
123  1.2200000000000D+00 -1.4016430043839D-01  2.6814524091494D-02
124  1.2300000000000D+00 -1.1334032228260D-01  2.2038721252818D-02
125  1.2400000000000D+00 -8.8460785762356D-02  1.7427557731555D-02
126  1.2500000000000D+00 -6.5988459209046D-02  1.3135211614682D-02
127  1.2600000000000D+00 -4.6332209702784D-02  9.2971944873439D-03
128  1.2700000000000D+00 -2.9850642492360D-02  6.0298669760248D-03
129  1.2800000000000D+00 -1.6781311804521D-02  3.4147249426090D-03
130  1.2900000000000D+00 -7.3627978533200D-03  1.5228682830242D-03
131  1.3000000000000D+00 -2.0301183502231D-03  4.5799635162609D-04
132  1.3100000000000D+00 -7.0392194061685D-05  6.1842426561636D-05
133  1.3200000000000D+00  1.2266542550357D-04 -8.9426014693113D-06
134  1.3300000000000D+00 -5.3361245382227D-05  5.7815037328740D-06
135  1.3400000000000D+00 -1.0792026799497D-05  1.3179177700134D-06
136  1.3500000000000D+00  1.0018848076720D-05 -8.8155717392528D-07
137  1.3600000000000D+00  2.0090344140882D-07 -1.2184376909563D-07
138  1.3700000000000D+00  1.9852173728936D-07 -1.2039931496009D-07
139  1.3800000000000D+00  0.0000000000000D+00  0.0000000000000D+00
140  1.3900000000000D+00  0.0000000000000D+00  0.0000000000000D+00
141  1.4000000000000D+00  0.0000000000000D+00  0.0000000000000D+00
142  1.4100000000000D+00  0.0000000000000D+00  0.0000000000000D+00
143  1.4200000000000D+00  0.0000000000000D+00  0.0000000000000D+00
144  1.4300000000000D+00  0.0000000000000D+00  0.0000000000000D+00
145  1.4400000000000D+00  0.0000000000000D+00  0.0000000000000D+00
146  1.4500000000000D+00  0.0000000000000D+00  0.0000000000000D+00
147  1.4600000000000D+00  0.0000000000000D+00  0.0000000000000D+00
148  1.4700000000000D+00  0.0000000000000D+00  0.0000000000000D+00
149  1.4800000000000D+00  0.0000000000000D+00  0.0000000000000D+00
150  1.4900000000000D+00  0.0000000000000D+00  0.0000000000000D+00
151  1.5000000000000D+00  0.0000000000000D+00  0.0000000000000D+00
152  1.5100000000000D+00  0.0000000000000D+00  0.0000000000000D+00
153  1.5200000000000D+00  0.0000000000000D+00  0.0000000000000D+00
154  1.5300000000000D+00  0.0000000000000D+00  0.0000000000000D+00
155  1.5400000000000D+00  0.0000000000000D+00  0.0000000000000D+00
156  1.5500000000000D+00  0.0000000000000D+00  0.0000000000000D+00
157  1.5600000000000D+00  0.0000000000000D+00  0.0000000000000D+00
158  1.5700000000000D+00  0.0000000000000D+00  0.0000000000000D+00
159  1.5800000000000D+00  0.0000000000000D+00  0.0000000000000D+00
160  1.5900000000000D+00  0.0000000000000D+00  0.0000000000000D+00
161  1.6000000000000D+00  0.0000000000000D+00  0.0000000000000D+00
162  1.6100000000000D+00  0.0000000000000D+00  0.0000000000000D+00
163  1.6200000000000D+00  0.0000000000000D+00  0.0000000000000D+00
164  1.6300000000000D+00  0.0000000000000D+00  0.0000000000000D+00
165  1.6400000000000D+00  0.0000000000000D+00  0.0000000000000D+00
166  1.6500000000000D+00  0.0000000000000D+00  0.0000000000000D+00
167  1.6600000000000D+00  0.0000000000000D+00  0.0000000000000D+00
168  1.6700000000000D+00  0.0000000000000D+00  0.0000000000000D+00
169  1.6800000000000D+00  0.0000000000000D+00  0.0000000000000D+00
170  1.6900000000000D+00  0.0000000000000D+00  0.0000000000000D+00
171  1.7000000000000D+00  0.0000000000000D+00  0.0000000000000D+00
172  1.7100000000000D+00  0.0000000000000D+00  0.0000000000000D+00
173  1.7200000000000D+00  0.0000000000000D+00  0.0000000000000D+00
174  1.7300000000000D+00  0.0000000000000D+00  0.0000000000000D+00
175  1.7400000000000D+00  0.0000000000000D+00  0.0000000000000D+00
176  1.7500000000000D+00  0.0000000000000D+00  0.0000000000000D+00
177  1.7600000000000D+00  0.0000000000000D+00  0.0000000000000D+00
178  1.7700000000000D+00  0.0000000000000D+00  0.0000000000000D+00
179  1.7800000000000D+00  0.0000000000000D+00  0.0000000000000D+00
180  1.7900000000000D+00  0.0000000000000D+00  0.0000000000000D+00
181  1.8000000000000D+00  0.0000000000000D+00  0.0000000000000D+00
182  1.8100000000000D+00  0.0000000000000D+00  0.0000000000000D+00
183  1.8200000000000D+00  0.0000000000000D+00  0.0000000000000D+00
184  1.8300000000000D+00  0.0000000000000D+00  0.0000000000000D+00
185  1.8400000000000D+00  0.0000000000000D+00  0.0000000000000D+00
186  1.8500000000000D+00  0.0000000000000D+00  0.0000000000000D+00
187  1.8600000000000D+00  0.0000000000000D+00  0.0000000000000D+00
188  1.8700000000000D+00  0.0000000000000D+00  0.0000000000000D+00
189  1.8800000000000D+00  0.0000000000000D+00  0.0000000000000D+00
190  1.8900000000000D+00  0.0000000000000D+00  0.0000000000000D+00
191  1.9000000000000D+00  0.0000000000000D+00  0.0000000000000D+00
192  1.9100000000000D+00  0.0000000000000D+00  0.0000000000000D+00
193  1.9200000000000D+00  0.0000000000000D+00  0.0000000000000D+00
194  1.9300000000000D+00  0.0000000000000D+00  0.0000000000000D+00
195  1.9400000000000D+00  0.0000000000000D+00  0.0000000000000D+00
196  1.9500000000000D+00  0.0000000000000D+00  0.0000000000000D+00
197  1.9600000000000D+00  0.0000000000000D+00  0.0000000000000D+00
198  1.9700000000000D+00  0.0000000000000D+00  0.0000000000000D+00
199  1.9800000000000D+00  0.0000000000000D+00  0.0000000000000D+00
200  1.9900000000000D+00  0.0000000000000D+00  0.0000000000000D+00
201  2.0000000000000D+00  0.0000000000000D+00  0.0000000000000D+00
202  2.0100000000000D+00  0.0000000000000D+00  0.0000000000000D+00
203  2.0200000000000D+00  0.0000000000000D+00  0.0000000000000D+00
204  2.0300000000000D+00  0.0000000000000D+00  0.0000000000000D+00
205  2.0400000000000D+00  0.0000000000000D+00  0.0000000000000D+00
206  2.0500000000000D+00  0.0000000000000D+00  0.0000000000000D+00
207  2.0600000000000D+00  0.0000000000000D+00  0.0000000000000D+00
208  2.0700000000000D+00  0.0000000000000D+00  0.0000000000000D+00
209  2.0800000000000D+00  0.0000000000000D+00  0.0000000000000D+00
210  2.0900000000000D+00  0.0000000000000D+00  0.0000000000000D+00
211  2.1000000000000D+00  0.0000000000000D+00  0.0000000000000D+00
212  2.1100000000000D+00  0.0000000000000D+00  0.0000000000000D+00
213  2.1200000000000D+00  0.0000000000000D+00  0.0000000000000D+00
214  2.1300000000000D+00  0.0000000000000D+00  0.0000000000000D+00
215  2.1400000000000D+00  0.0000000000000D+00  0.0000000000000D+00
216  2.1500000000000D+00  0.0000000000000D+00  0.0000000000000D+00
217  2.1600000000000D+00  0.0000000000000D+00  0.0000000000000D+00
218  2.1700000000000D+00  0.0000000000000D+00  0.0000000000000D+00
219  2.1800000000000D+00  0.0000000000000D+00  0.0000000000000D+00
220  2.1900000000000D+00  0.0000000000000D+00  0.0000000000000D+00
221  2.2000000000000D+00  0.0000000000000D+00  0.0000000000000D+00
222  2.2100000000000D+00  0.0000000000000D+00  0.0000000000000D+00
223  2.2200000000000D+00  0.0000000000000D+00  0.0000000000000D+00
224  2.2300000000000D+00  0.0000000000000D+00  0.0000000000000D+00
225  2.2400000000000D+00  0.0000000000000D+00  0.0000000000000D+00
226  2.2500000000000D+00  0.0000000000000D+00  0.0000000000000D+00
227  2.2600000000000D+00  0.0000000000000D+00  0.0000000000000D+00
228  2.2700000000000D+00  0.0000000000000D+00  0.0000000000000D+00
229  2.2800000000000D+00  0.0000000000000D+00  0.0000000000000D+00
230  2.2900000000000D+00  0.0000000000000D+00  0.0000000000000D+00
231  2.3000000000000D+00  0.0000000000000D+00  0.0000000000000D+00
232  2.3100000000000D+00  0.0000000000000D+00  0.0000000000000D+00
233  2.3200000000000D+00  0.0000000000000D+00  0.0000000000000D+00
234  2.3300000000000D+00  0.0000000000000D+00  0.0000000000000D+00
235  2.3400000000000D+00  0.0000000000000D+00  0.0000000000000D+00
236  2.3500000000000D+00  0.0000000000000D+00  0.0000000000000D+00
237  2.3600000000000D+00  0.0000000000000D+00  0.0000000000000D+00
238  2.3700000000000D+00  0.0000000000000D+00  0.0000000000000D+00
239  2.3800000000000D+00  0.0000000000000D+00  0.0000000000000D+00
240  2.3900000000000D+00  0.0000000000000D+00  0.0000000000000D+00
241  2.4000000000000D+00  0.0000000000000D+00  0.0000000000000D+00
242  2.4100000000000D+00  0.0000000000000D+00  0.0000000000000D+00
243  2.4200000000000D+00  0.0000000000000D+00  0.0000000000000D+00
244  2.4300000000000D+00  0.0000000000000D+00  0.0000000000000D+00
245  2.4400000000000D+00  0.0000000000000D+00  0.0000000000000D+00
246  2.4500000000000D+00  0.0000000000000D+00  0.0000000000000D+00
247  2.4600000000000D+00  0.0000000000000D+00  0.0000000000000D+00
248  2.4700000000000D+00  0.0000000000000D+00  0.0000000000000D+00
249  2.4800000000000D+00  0.0000000000000D+00  0.0000000000000D+00
250  2.4900000000000D+00  0.0000000000000D+00  0.0000000000000D+00
251  2.5000000000000D+00  0.0000000000000D+00  0.0000000000000D+00
252  2.5100000000000D+00  0.0000000000000D+00  0.0000000000000D+00
253  2.5200000000000D+00  0.0000000000000D+00  0.0000000000000D+00
254  2.5300000000000D+00  0.0000000000000D+00  0.0000000000000D+00
255  2.5400000000000D+00  0.0000000000000D+00  0.0000000000000D+00
256  2.5500000000000D+00  0.0000000000000D+00  0.0000000000000D+00
257  2.5600000000000D+00  0.0000000000000D+00  0.0000000000000D+00
258  2.5700000000000D+00  0.0000000000000D+00  0.0000000000000D+00
259  2.5800000000000D+00  0.0000000000000D+00  0.0000000000000D+00
260  2.5900000000000D+00  0.0000000000000D+00  0.0000000000000D+00
261  2.6000000000000D+00  0.0000000000000D+00  0.0000000000000D+00
262  2.6100000000000D+00  0.0000000000000D+00  0.0000000000000D+00
263  2.6200000000000D+00  0.0000000000000D+00  0.0000000000000D+00
264  2.6300000000000D+00  0.0000000000000D+00  0.0000000000000D+00
265  2.6400000000000D+00  0.0000000000000D+00  0.0000000000000D+00
266  2.6500000000000D+00  0.0000000000000D+00  0.0000000000000D+00
267  2.6600000000000D+00  0.0000000000000D+00  0.0000000000000D+00
268  2.6700000000000D+00  0.0000000000000D+00  0.0000000000000D+00
269  2.6800000000000D+00  0.0000000000000D+00  0.0000000000000D+00
270  2.6900000000000D+00  0.0000000000000D+00  0.0000000000000D+00
271  2.7000000000000D+00  0.0000000000000D+00  0.0000000000000D+00
272  2.7100000000000D+00  0.0000000000000D+00  0.0000000000000D+00
273  2.7200000000000D+00  0.0000000000000D+00  0.0000000000000D+00
274  2.7300000000000D+00  0.0000000000000D+00  0.0000000000000D+00
275  2.7400000000000D+00  0.0000000000000D+00  0.0000000000000D+00
276  2.7500000000000D+00  0.0000000000000D+00  0.0000000000000D+00
277  2.7600000000000D+00  0.0000000000000D+00  0.0000000000000D+00
278  2.7700000000000D+00  0.0000000000000D+00  0.0000000000000D+00
279  2.7800000000000D+00  0.0000000000000D+00  0.0000000000000D+00
280  2.7900000000000D+00  0.0000000000000D+00  0.0000000000000D+00
281  2.8000000000000D+00  0.0000000000000D+00  0.0000000000000D+00
282  2.8100000000000D+00  0.0000000000000D+00  0.0000000000000D+00
283  2.8200000000000D+00  0.0000000000000D+00  0.0000000000000D+00
284  2.8300000000000D+00  0.0000000000000D+00  0.0000000000000D+00
285  2.8400000000000D+00  0.0000000000000D+00  0.0000000000000D+00
286  2.8500000000000D+00  0.0000000000000D+00  0.0000000000000D+00
287  2.8600000000000D+00  0.0000000000000D+00  0.0000000000000D+00
288  2.8700000000000D+00  0.0000000000000D+00  0.0000000000000D+00
289  2.8800000000000D+00  0.0000000000000D+00  0.0000000000000D+00
290  2.8900000000000D+00  0.0000000000000D+00  0.0000000000000D+00
291  2.9000000000000D+00  0.0000000000000D+00  0.0000000000000D+00
292  2.9100000000000D+00  0.0000000000000D+00  0.0000000000000D+00
293  2.9200000000000D+00  0.0000000000000D+00  0.0000000000000D+00
294  2.9300000000000D+00  0.0000000000000D+00  0.0000000000000D+00
295  2.9400000000000D+00  0.0000000000000D+00  0.0000000000000D+00
296  2.9500000000000D+00  0.0000000000000D+00  0.0000000000000D+00
297  2.9600000000000D+00  0.0000000000000D+00  0.0000000000000D+00
298  2.9700000000000D+00  0.0000000000000D+00  0.0000000000000D+00
299  2.9800000000000D+00  0.0000000000000D+00  0.0000000000000D+00
300  2.9900000000000D+00  0.0000000000000D+00  0.0000000000000D+00
301  3.0000000000000D+00  0.0000000000000D+00  0.0000000000000D+00
302  3.0100000000000D+00  0.0000000000000D+00  0.0000000000000D+00
303  3.0200000000000D+00  0.0000000000000D+00  0.0000000000000D+00
304  3.0300000000000D+00  0.0000000000000D+00  0.0000000000000D+00
305  3.0400000000000D+00  0.0000000000000D+00  0.0000000000000D+00
306  3.0500000000000D+00  0.0000000000000D+00  0.0000000000000D+00
307  3.0600000000000D+00  0.0000000000000D+00  0.0000000000000D+00
308  3.0700000000000D+00  0.0000000000000D+00  0.0000000000000D+00
309  3.0800000000000D+00  0.0000000000000D+00  0.0000000000000D+00
310  3.0900000000000D+00  0.0000000000000D+00  0.0000000000000D+00
311  3.1000000000000D+00  0.0000000000000D+00  0.0000000000000D+00
312  3.1100000000000D+00  0.0000000000000D+00  0.0000000000000D+00
313  3.1200000000000D+00  0.0000000000000D+00  0.0000000000000D+00
314  3.1300000000000D+00  0.0000000000000D+00  0.0000000000000D+00
315  3.1400000000000D+00  0.0000000000000D+00  0.0000000000000D+00
316  3.1500000000000D+00  0.0000000000000D+00  0.0000000000000D+00
317  3.1600000000000D+00  0.0000000000000D+00  0.0000000000000D+00
318  3.1700000000000D+00  0.0000000000000D+00  0.0000000000000D+00
319  3.1800000000000D+00  0.0000000000000D+00  0.0000000000000D+00
320  3.1900000000000D+00  0.0000000000000D+00  0.0000000000000D+00
321  3.2000000000000D+00  0.0000000000000D+00  0.0000000000000D+00
322  3.2100000000000D+00  0.0000000000000D+00  0.0000000000000D+00
323  3.2200000000000D+00  0.0000000000000D+00  0.0000000000000D+00
324  3.2300000000000D+00  0.0000000000000D+00  0.0000000000000D+00
325  3.2400000000000D+00  0.0000000000000D+00  0.0000000000000D+00
326  3.2500000000000D+00  0.0000000000000D+00  0.0000000000000D+00
327  3.2600000000000D+00  0.0000000000000D+00  0.0000000000000D+00
328  3.2700000000000D+00  0.0000000000000D+00  0.0000000000000D+00
329  3.2800000000000D+00  0.0000000000000D+00  0.0000000000000D+00
330  3.2900000000000D+00  0.0000000000000D+00  0.0000000000000D+00
331  3.3000000000000D+00  0.0000000000000D+00  0.0000000000000D+00
332  3.3100000000000D+00  0.0000000000000D+00  0.0000000000000D+00
333  3.3200000000000D+00  0.0000000000000D+00  0.0000000000000D+00
334  3.3300000000000D+00  0.0000000000000D+00  0.0000000000000D+00
335  3.3400000000000D+00  0.0000000000000D+00  0.0000000000000D+00
336  3.3500000000000D+00  0.0000000000000D+00  0.0000000000000D+00
337  3.3600000000000D+00  0.0000000000000D+00  0.0000000000000D+00
338  3.3700000000000D+00  0.0000000000000D+00  0.0000000000000D+00
339  3.3800000000000D+00  0.0000000000000D+00  0.0000000000000D+00
340  3.3900000000000D+00  0.0000000000000D+00  0.0000000000000D+00
341  3.4000000000000D+00  0.0000000000000D+00  0.0000000000000D+00
342  3.4100000000000D+00  0.0000000000000D+00  0.0000000000000D+00
343  3.4200000000000D+00  0.0000000000000D+00  0.0000000000000D+00
344  3.4300000000000D+00  0.0000000000000D+00  0.0000000000000D+00
345  3.4400000000000D+00  0.0000000000000D+00  0.0000000000000D+00
346  3.4500000000000D+00  0.0000000000000D+00  0.0000000000000D+00
347  3.4600000000000D+00  0.0000000000000D+00  0.0000000000000D+00
348  3.4700000000000D+00  0.0000000000000D+00  0.0000000000000D+00
349  3.4800000000000D+00  0.0000000000000D+00  0.0000000000000D+00
350  3.4900000000000D+00  0.0000000000000D+00  0.0000000000000D+00
351  3.5000000000000D+00  0.0000000000000D+00  0.0000000000000D+00
352  3.5100000000000D+00  0.0000000000000D+00  0.0000000000000D+00
353  3.5200000000000D+00  0.0000000000000D+00  0.0000000000000D+00
354  3.5300000000000D+00  0.0000000000000D+00  0.0000000000000D+00
355  3.5400000000000D+00  0.0000000000000D+00  0.0000000000000D+00
356  3.5500000000000D+00  0.0000000000000D+00  0.0000000000000D+00
357  3.5600000000000D+00  0.0000000000000D+00  0.0000000000000D+00
358  3.5700000000000D+00  0.0000000000000D+00  0.0000000000000D+00
359  3.5800000000000D+00  0.0000000000000D+00  0.0000000000000D+00
360  3.5900000000000D+00  0.0000000000000D+00  0.0000000000000D+00
361  3.6000000000000D+00  0.0000000000000D+00  0.0000000000000D+00
362  3.6100000000000D+00  0.0000000000000D+00  0.0000000000000D+00
363  3.6200000000000D+00  0.0000000000000D+00  0.0000000000000D+00
364  3.6300000000000D+00  0.0000000000000D+00  0.0000000000000D+00
365  3.6400000000000D+00  0.0000000000000D+00  0.0000000000000D+00
366  3.6500000000000D+00  0.0000000000000D+00  0.0000000000000D+00
367  3.6600000000000D+00  0.0000000000000D+00  0.0000000000000D+00
368  3.6700000000000D+00  0.0000000000000D+00  0.0000000000000D+00
369  3.6800000000000D+00  0.0000000000000D+00  0.0000000000000D+00
370  3.6900000000000D+00  0.0000000000000D+00  0.0000000000000D+00
371  3.7000000000000D+00  0.0000000000000D+00  0.0000000000000D+00
372  3.7100000000000D+00  0.0000000000000D+00  0.0000000000000D+00
373  3.7200000000000D+00  0.0000000000000D+00  0.0000000000000D+00
374  3.7300000000000D+00  0.0000000000000D+00  0.0000000000000D+00
375  3.7400000000000D+00  0.0000000000000D+00  0.0000000000000D+00
376  3.7500000000000D+00  0.0000000000000D+00  0.0000000000000D+00
377  3.7600000000000D+00  0.0000000000000D+00  0.0000000000000D+00
378  3.7700000000000D+00  0.0000000000000D+00  0.0000000000000D+00
379  3.7800000000000D+00  0.0000000000000D+00  0.0000000000000D+00
380  3.7900000000000D+00  0.0000000000000D+00  0.0000000000000D+00
381  3.8000000000000D+00  0.0000000000000D+00  0.0000000000000D+00
382  3.8100000000000D+00  0.0000000000000D+00  0.0000000000000D+00
383  3.8200000000000D+00  0.0000000000000D+00  0.0000000000000D+00
384  3.8300000000000D+00  0.0000000000000D+00  0.0000000000000D+00
385  3.8400000000000D+00  0.0000000000000D+00  0.0000000000000D+00
386  3.8500000000000D+00  0.0000000000000D+00  0.0000000000000D+00
387  3.8600000000000D+00  0.0000000000000D+00  0.0000000000000D+00
388  3.8700000000000D+00  0.0000000000000D+00  0.0000000000000D+00
389  3.8800000000000D+00  0.0000000000000D+00  0.0000000000000D+00
390  3.8900000000000D+00  0.0000000000000D+00  0.0000000000000D+00
391  3.9000000000000D+00  0.0000000000000D+00  0.0000000000000D+00
392  3.9100000000000D+00  0.0000000000000D+00  0.0000000000000D+00
393  3.9200000000000D+00  0.0000000000000D+00  0.0000000000000D+00
394  3.9300000000000D+00  0.0000000000000D+00  0.0000000000000D+00
395  3.9400000000000D+00  0.0000000000000D+00  0.0000000000000D+00
396  3.9500000000000D+00  0.0000000000000D+00  0.0000000000000D+00
397  3.9600000000000D+00  0.0000000000000D+00  0.0000000000000D+00
398  3.9700000000000D+00  0.0000000000000D+00  0.0000000000000D+00
399  3.9800000000000D+00  0.0000000000000D+00  0.0000000000000D+00
400  3.9900000000000D+00  0.0000000000000D+00  0.0000000000000D+00
401  4.0000000000000D+00  0.0000000000000D+00  0.0000000000000D+00
402  4.0100000000000D+00  0.0000000000000D+00  0.0000000000000D+00
403  4.0200000000000D+00  0.0000000000000D+00  0.0000000000000D+00
404  4.0300000000000D+00  0.0000000000000D+00  0.0000000000000D+00
405  4.0400000000000D+00  0.0000000000000D+00  0.0000000000000D+00
406  4.0500000000000D+00  0.0000000000000D+00  0.0000000000000D+00
407  4.0600000000000D+00  0.0000000000000D+00  0.0000000000000D+00
408  4.0700000000000D+00  0.0000000000000D+00  0.0000000000000D+00
409  4.0800000000000D+00  0.0000000000000D+00  0.0000000000000D+00
410  4.0900000000000D+00  0.0000000000000D+00  0.0000000000000D+00
411  4.1000000000000D+00  0.0000000000000D+00  0.0000000000000D+00
412  4.1100000000000D+00  0.0000000000000D+00  0.0000000000000D+00
413  4.1200000000000D+00  0.0000000000000D+00  0.0000000000000D+00
414  4.1300000000000D+00  0.0000000000000D+00  0.0000000000000D+00
415  4.1400000000000D+00  0.0000000000000D+00  0.0000000000000D+00
416  4.1500000000000D+00  0.0000000000000D+00  0.0000000000000D+00
417  4.1600000000000D+00  0.0000000000000D+00  0.0000000000000D+00
418  4.1700000000000D+00  0.0000000000000D+00  0.0000000000000D+00
419  4.1800000000000D+00  0.0000000000000D+00  0.0000000000000D+00
420  4.1900000000000D+00  0.0000000000000D+00  0.0000000000000D+00
421  4.2000000000000D+00  0.0000000000000D+00  0.0000000000000D+00
422  4.2100000000000D+00  0.0000000000000D+00  0.0000000000000D+00
423  4.2200000000000D+00  0.0000000000000D+00  0.0000000000000D+00
424  4.2300000000000D+00  0.0000000000000D+00  0.0000000000000D+00
425  4.2400000000000D+00  0.0000000000000D+00  0.0000000000000D+00
426  4.2500000000000D+00  0.0000000000000D+00  0.0000000000000D+00
427  4.2600000000000D+00  0.0000000000000D+00  0.0000000000000D+00
428  4.2700000000000D+00  0.0000000000000D+00  0.0000000000000D+00
429  4.2800000000000D+00  0.0000000000000D+00  0.0000000000000D+00
430  4.2900000000000D+00  0.0000000000000D+00  0.0000000000000D+00
431  4.3000000000000D+00  0.0000000000000D+00  0.0000000000000D+00
432  4.3100000000000D+00  0.0000000000000D+00  0.0000000000000D+00
433  4.3200000000000D+00  0.0000000000000D+00  0.0000000000000D+00
434  4.3300000000000D+00  0.0000000000000D+00  0.0000000000000D+00
435  4.3400000000000D+00  0.0000000000000D+00  0.0000000000000D+00
436  4.3500000000000D+00  0.0000000000000D+00  0.0000000000000D+00
437  4.3600000000000D+00  0.0000000000000D+00  0.0000000000000D+00
438  4.3700000000000D+00  0.0000000000000D+00  0.0000000000000D+00
439  4.3800000000000D+00  0.0000000000000D+00  0.0000000000000D+00
440  4.3900000000000D+00  0.0000000000000D+00  0.0000000000000D+00
441  4.4000000000000D+00  0.0000000000000D+00  0.0000000000000D+00
442  4.4100000000000D+00  0.0000000000000D+00  0.0000000000000D+00
443  4.4200000000000D+00  0.0000000000000D+00  0.0000000000000D+00