H     ONCVPSP-3.3.0  r_core=   1.00957   0.70586
1.0000      1.0000      180429    zatom,zion,pspd
8 -116133   1     4   300     0    pspcod,pspxc,lmax,lloc,mmax,r2well
2.99000000  0.00000000  0.00000000    rchrg fchrg qchrg
2     2     0     0    nproj
3     1           extension_switch
2     0     0    nprojso
0                        -1.6749362431879D+00 -5.2361546104049D-01
1  0.0000000000000D+00  3.3005879362946D-08 -5.2682240903046D-08
2  1.0000000000000D-02  3.8966353757785D-02  1.0211844575775D-01
3  2.0000000000000D-02  7.8789974551077D-02  2.0251073789386D-01
4  3.0000000000000D-02  1.2030576343175D-01  2.9948641950455D-01
5  4.0000000000000D-02  1.6430434021801D-01  3.9142571661928D-01
6  5.0000000000000D-02  2.1151102105536D-01  4.7681311723715D-01
7  6.0000000000000D-02  2.6256611371728D-01  5.5426887389342D-01
8  7.0000000000000D-02  3.1800693025781D-01  6.2257780088751D-01
9  8.0000000000000D-02  3.7825188362180D-01  6.8071478998597D-01
10  9.0000000000000D-02  4.4358699474901D-01  7.2786653234587D-01
11  1.0000000000000D-01  5.1415509033117D-01  7.6344900835946D-01
12  1.1000000000000D-01  5.8994791957841D-01  7.8712038967756D-01
13  1.2000000000000D-01  6.7080136210265D-01  7.9878908724187D-01
14  1.3000000000000D-01  7.5639383939856D-01  7.9861677402074D-01
15  1.4000000000000D-01  8.4624798053080D-01  7.8701630947089D-01
16  1.5000000000000D-01  9.3973552969347D-01  7.6464459264414D-01
17  1.6000000000000D-01  1.0360854204939D+00  7.3239047039150D-01
18  1.7000000000000D-01  1.1343948803241D+00  6.9135792436173D-01
19  1.8000000000000D-01  1.2336433691932D+00  6.4284485356234D-01
20  1.9000000000000D-01  1.3327091020314D+00  5.8831785633579D-01
21  2.0000000000000D-01  1.4303878528028D+00  5.2938349500722D-01
22  2.1000000000000D-01  1.5254136937494D+00  4.6775659662661D-01
23  2.2000000000000D-01  1.6164812846101D+00  4.0522620277689D-01
24  2.3000000000000D-01  1.7022692954508D+00  3.4361982917432D-01
25  2.4000000000000D-01  1.7814645234178D+00  2.8476673079145D-01
26  2.5000000000000D-01  1.8527862487526D+00  2.3046088977725D-01
27  2.6000000000000D-01  1.9150103690696D+00  1.8242445108155D-01
28  2.7000000000000D-01  1.9669928533488D+00  1.4227232422462D-01
29  2.8000000000000D-01  2.0076920682961D+00  1.1147864917953D-01
30  2.9000000000000D-01  2.0361895494806D+00  9.1345790210311D-02
31  3.0000000000000D-01  2.0517088176042D+00  8.2976474360038D-02
32  3.1000000000000D-01  2.0536318758811D+00  8.7249631993128D-02
33  3.2000000000000D-01  2.0415130671325D+00  1.0480042647657D-01
34  3.3000000000000D-01  2.0150900180267D+00  1.3600488008555D-01
35  3.4000000000000D-01  1.9742914520017D+00  1.8096941505993D-01
36  3.5000000000000D-01  1.9192417107595D+00  2.3952553412145D-01
37  3.6000000000000D-01  1.8502618857042D+00  3.1122976551694D-01
38  3.7000000000000D-01  1.7678675241478D+00  3.9536889570085D-01
39  3.8000000000000D-01  1.6727629392826D+00  4.9097041010644D-01
40  3.9000000000000D-01  1.5658322166200D+00  5.9681796107583D-01
41  4.0000000000000D-01  1.4481270715559D+00  7.1147158393342D-01
42  4.1000000000000D-01  1.3208517717700D+00  8.3329228931550D-01
43  4.2000000000000D-01  1.1853453931473D+00  9.6047057406187D-01
44  4.3000000000000D-01  1.0430617277464D+00  1.0910583159465D+00
45  4.4000000000000D-01  8.9554720607433D-01  1.2230034508128D+00
46  4.5000000000000D-01  7.4441723268567D-01  1.3541867756479D+00
47  4.6000000000000D-01  5.9133136319969D-01  1.4824601788927D+00
48  4.7000000000000D-01  4.3796777162933D-01  1.6056855707367D+00
49  4.8000000000000D-01  2.8599746903454D-01  1.7217737718963D+00
50  4.9000000000000D-01  1.3705873769564D-01  1.8287226197575D+00
51  5.0000000000000D-01 -7.2677608223680D-03  1.9246535658342D+00
52  5.1000000000000D-01 -1.4548276008116D-01  2.0078460680107D+00
53  5.2000000000000D-01 -2.7619062540130D-01  2.0767691244903D+00
54  5.3000000000000D-01 -3.9811966401225D-01  2.1301093529065D+00
55  5.4000000000000D-01 -5.1014015917462D-01  2.1667950866790D+00
56  5.5000000000000D-01 -6.1127982475140D-01  2.1860160401182D+00
57  5.6000000000000D-01 -7.0073642854282D-01  2.1872381822128D+00
58  5.7000000000000D-01 -7.7788738972279D-01  2.1702135553880D+00
59  5.8000000000000D-01 -8.4229621622433D-01  2.1349848769405D+00
60  5.9000000000000D-01 -8.9371571149870D-01  2.0818848666219D+00
61  6.0000000000000D-01 -9.3208794458177D-01  2.0115303503943D+00
62  6.1000000000000D-01 -9.5754104262539D-01  1.9248112973481D+00
63  6.2000000000000D-01 -9.7038292851263D-01  1.8228750500549D+00
64  6.3000000000000D-01 -9.7109218792596D-01  1.7071061083019D+00
65  6.4000000000000D-01 -9.6030630791477D-01  1.5791019183514D+00
66  6.5000000000000D-01 -9.3880758220234D-01  1.4406452039188D+00
67  6.6000000000000D-01 -9.0750702603310D-01  1.2936734490862D+00
68  6.7000000000000D-01 -8.6742668402574D-01  1.1402462053610D+00
69  6.8000000000000D-01 -8.1968074787476D-01  9.8251094442397D-01
70  6.9000000000000D-01 -7.6545592783442D-01  8.2266821782790D-01
71  7.0000000000000D-01 -7.0599150441265D-01  6.6293682055201D-01
72  7.1000000000000D-01 -6.4255970621403D-01  5.0552019558828D-01
73  7.2000000000000D-01 -5.7644296079158D-01  3.5256503910837D-01
74  7.3000000000000D-01 -5.0890266473012D-01  2.0610024821065D-01
75  7.4000000000000D-01 -4.4115262556340D-01  6.7990543264054D-02
76  7.5000000000000D-01 -3.7433869589744D-01 -6.0094011005674D-02
77  7.6000000000000D-01 -3.0952014756252D-01 -1.7670503257962D-01
78  7.7000000000000D-01 -2.4765330616137D-01 -2.8063835555814D-01
79  7.8000000000000D-01 -1.8957767022063D-01 -3.7095179222678D-01
80  7.9000000000000D-01 -1.3600473800848D-01 -4.4697779740685D-01
81  8.0000000000000D-01 -8.7509707887442D-02 -5.0833081119412D-01
82  8.1000000000000D-01 -4.4526158207937D-02 -5.5490916160616D-01
83  8.2000000000000D-01 -7.3437517703967D-03 -5.8689151488578D-01
84  8.3000000000000D-01  2.3891051485165D-02 -6.0472796748771D-01
85  8.4000000000000D-01  4.9171350529080D-02 -6.0912597822003D-01
86  8.5000000000000D-01  6.8623363589156D-02 -6.0103143939567D-01
87  8.6000000000000D-01  8.2497383809968D-02 -5.8160528033776D-01
88  8.7000000000000D-01  9.1156372448734D-02 -5.5219608329299D-01
89  8.8000000000000D-01  9.5062477748978D-02 -5.1430926896932D-01
90  8.9000000000000D-01  9.4761807446183D-02 -4.6957347520030D-01
91  9.0000000000000D-01  9.0867815699800D-02 -4.1970480616750D-01
92  9.1000000000000D-01  8.4043690528491D-02 -3.6646967023505D-01
93  9.2000000000000D-01  7.4984145062937D-02 -3.1164695096669D-01
94  9.3000000000000D-01  6.4397024785800D-02 -2.5699026775761D-01
95  9.4000000000000D-01  5.2985143281939D-02 -2.0419107955811D-01
96  9.5000000000000D-01  4.1428750906653D-02 -1.5484336748179D-01
97  9.6000000000000D-01  3.0369023893948D-02 -1.1041059913620D-01
98  9.7000000000000D-01  2.0392937826735D-02 -7.2195633044933D-02
99  9.8000000000000D-01  1.2025234291255D-02 -4.1330151627087D-02
100  9.9000000000000D-01  5.6596003444410D-03 -1.8585482055886D-02
101  1.0000000000000D+00  1.8185675131739D-03 -5.1153716582635D-03
102  1.0100000000000D+00  4.3999486840792D-04 -4.8913354601416D-04
103  1.0200000000000D+00  2.6213189979420D-05  3.3662419051138D-05
104  1.0300000000000D+00 -1.2368831349082D-05 -3.8865730200409D-05
105  1.0400000000000D+00  5.6119930068186D-06  5.7143851639817D-06
106  1.0500000000000D+00 -1.1281888385336D-06  1.3644642539455D-06
107  1.0600000000000D+00  0.0000000000000D+00  0.0000000000000D+00
108  1.0700000000000D+00  0.0000000000000D+00  0.0000000000000D+00
109  1.0800000000000D+00  0.0000000000000D+00  0.0000000000000D+00
110  1.0900000000000D+00  0.0000000000000D+00  0.0000000000000D+00
111  1.1000000000000D+00  0.0000000000000D+00  0.0000000000000D+00
112  1.1100000000000D+00  0.0000000000000D+00  0.0000000000000D+00
113  1.1200000000000D+00  0.0000000000000D+00  0.0000000000000D+00
114  1.1300000000000D+00  0.0000000000000D+00  0.0000000000000D+00
115  1.1400000000000D+00  0.0000000000000D+00  0.0000000000000D+00
116  1.1500000000000D+00  0.0000000000000D+00  0.0000000000000D+00
117  1.1600000000000D+00  0.0000000000000D+00  0.0000000000000D+00
118  1.1700000000000D+00  0.0000000000000D+00  0.0000000000000D+00
119  1.1800000000000D+00  0.0000000000000D+00  0.0000000000000D+00
120  1.1900000000000D+00  0.0000000000000D+00  0.0000000000000D+00
121  1.2000000000000D+00  0.0000000000000D+00  0.0000000000000D+00
122  1.2100000000000D+00  0.0000000000000D+00  0.0000000000000D+00
123  1.2200000000000D+00  0.0000000000000D+00  0.0000000000000D+00
124  1.2300000000000D+00  0.0000000000000D+00  0.0000000000000D+00
125  1.2400000000000D+00  0.0000000000000D+00  0.0000000000000D+00
126  1.2500000000000D+00  0.0000000000000D+00  0.0000000000000D+00
127  1.2600000000000D+00  0.0000000000000D+00  0.0000000000000D+00
128  1.2700000000000D+00  0.0000000000000D+00  0.0000000000000D+00
129  1.2800000000000D+00  0.0000000000000D+00  0.0000000000000D+00
130  1.2900000000000D+00  0.0000000000000D+00  0.0000000000000D+00
131  1.3000000000000D+00  0.0000000000000D+00  0.0000000000000D+00
132  1.3100000000000D+00  0.0000000000000D+00  0.0000000000000D+00
133  1.3200000000000D+00  0.0000000000000D+00  0.0000000000000D+00
134  1.3300000000000D+00  0.0000000000000D+00  0.0000000000000D+00
135  1.3400000000000D+00  0.0000000000000D+00  0.0000000000000D+00
136  1.3500000000000D+00  0.0000000000000D+00  0.0000000000000D+00
137  1.3600000000000D+00  0.0000000000000D+00  0.0000000000000D+00
138  1.3700000000000D+00  0.0000000000000D+00  0.0000000000000D+00
139  1.3800000000000D+00  0.0000000000000D+00  0.0000000000000D+00
140  1.3900000000000D+00  0.0000000000000D+00  0.0000000000000D+00
141  1.4000000000000D+00  0.0000000000000D+00  0.0000000000000D+00
142  1.4100000000000D+00  0.0000000000000D+00  0.0000000000000D+00
143  1.4200000000000D+00  0.0000000000000D+00  0.0000000000000D+00
144  1.4300000000000D+00  0.0000000000000D+00  0.0000000000000D+00
145  1.4400000000000D+00  0.0000000000000D+00  0.0000000000000D+00
146  1.4500000000000D+00  0.0000000000000D+00  0.0000000000000D+00
147  1.4600000000000D+00  0.0000000000000D+00  0.0000000000000D+00
148  1.4700000000000D+00  0.0000000000000D+00  0.0000000000000D+00
149  1.4800000000000D+00  0.0000000000000D+00  0.0000000000000D+00
150  1.4900000000000D+00  0.0000000000000D+00  0.0000000000000D+00
151  1.5000000000000D+00  0.0000000000000D+00  0.0000000000000D+00
152  1.5100000000000D+00  0.0000000000000D+00  0.0000000000000D+00
153  1.5200000000000D+00  0.0000000000000D+00  0.0000000000000D+00
154  1.5300000000000D+00  0.0000000000000D+00  0.0000000000000D+00
155  1.5400000000000D+00  0.0000000000000D+00  0.0000000000000D+00
156  1.5500000000000D+00  0.0000000000000D+00  0.0000000000000D+00
157  1.5600000000000D+00  0.0000000000000D+00  0.0000000000000D+00
158  1.5700000000000D+00  0.0000000000000D+00  0.0000000000000D+00
159  1.5800000000000D+00  0.0000000000000D+00  0.0000000000000D+00
160  1.5900000000000D+00  0.0000000000000D+00  0.0000000000000D+00
161  1.6000000000000D+00  0.0000000000000D+00  0.0000000000000D+00
162  1.6100000000000D+00  0.0000000000000D+00  0.0000000000000D+00
163  1.6200000000000D+00  0.0000000000000D+00  0.0000000000000D+00
164  1.6300000000000D+00  0.0000000000000D+00  0.0000000000000D+00
165  1.6400000000000D+00  0.0000000000000D+00  0.0000000000000D+00
166  1.6500000000000D+00  0.0000000000000D+00  0.0000000000000D+00
167  1.6600000000000D+00  0.0000000000000D+00  0.0000000000000D+00
168  1.6700000000000D+00  0.0000000000000D+00  0.0000000000000D+00
169  1.6800000000000D+00  0.0000000000000D+00  0.0000000000000D+00
170  1.6900000000000D+00  0.0000000000000D+00  0.0000000000000D+00
171  1.7000000000000D+00  0.0000000000000D+00  0.0000000000000D+00
172  1.7100000000000D+00  0.0000000000000D+00  0.0000000000000D+00
173  1.7200000000000D+00  0.0000000000000D+00  0.0000000000000D+00
174  1.7300000000000D+00  0.0000000000000D+00  0.0000000000000D+00
175  1.7400000000000D+00  0.0000000000000D+00  0.0000000000000D+00
176  1.7500000000000D+00  0.0000000000000D+00  0.0000000000000D+00
177  1.7600000000000D+00  0.0000000000000D+00  0.0000000000000D+00
178  1.7700000000000D+00  0.0000000000000D+00  0.0000000000000D+00
179  1.7800000000000D+00  0.0000000000000D+00  0.0000000000000D+00
180  1.7900000000000D+00  0.0000000000000D+00  0.0000000000000D+00
181  1.8000000000000D+00  0.0000000000000D+00  0.0000000000000D+00
182  1.8100000000000D+00  0.0000000000000D+00  0.0000000000000D+00
183  1.8200000000000D+00  0.0000000000000D+00  0.0000000000000D+00
184  1.8300000000000D+00  0.0000000000000D+00  0.0000000000000D+00
185  1.8400000000000D+00  0.0000000000000D+00  0.0000000000000D+00
186  1.8500000000000D+00  0.0000000000000D+00  0.0000000000000D+00
187  1.8600000000000D+00  0.0000000000000D+00  0.0000000000000D+00
188  1.8700000000000D+00  0.0000000000000D+00  0.0000000000000D+00
189  1.8800000000000D+00  0.0000000000000D+00  0.0000000000000D+00
190  1.8900000000000D+00  0.0000000000000D+00  0.0000000000000D+00
191  1.9000000000000D+00  0.0000000000000D+00  0.0000000000000D+00
192  1.9100000000000D+00  0.0000000000000D+00  0.0000000000000D+00
193  1.9200000000000D+00  0.0000000000000D+00  0.0000000000000D+00
194  1.9300000000000D+00  0.0000000000000D+00  0.0000000000000D+00
195  1.9400000000000D+00  0.0000000000000D+00  0.0000000000000D+00
196  1.9500000000000D+00  0.0000000000000D+00  0.0000000000000D+00
197  1.9600000000000D+00  0.0000000000000D+00  0.0000000000000D+00
198  1.9700000000000D+00  0.0000000000000D+00  0.0000000000000D+00
199  1.9800000000000D+00  0.0000000000000D+00  0.0000000000000D+00
200  1.9900000000000D+00  0.0000000000000D+00  0.0000000000000D+00
201  2.0000000000000D+00  0.0000000000000D+00  0.0000000000000D+00
202  2.0100000000000D+00  0.0000000000000D+00  0.0000000000000D+00
203  2.0200000000000D+00  0.0000000000000D+00  0.0000000000000D+00
204  2.0300000000000D+00  0.0000000000000D+00  0.0000000000000D+00
205  2.0400000000000D+00  0.0000000000000D+00  0.0000000000000D+00
206  2.0500000000000D+00  0.0000000000000D+00  0.0000000000000D+00
207  2.0600000000000D+00  0.0000000000000D+00  0.0000000000000D+00
208  2.0700000000000D+00  0.0000000000000D+00  0.0000000000000D+00
209  2.0800000000000D+00  0.0000000000000D+00  0.0000000000000D+00
210  2.0900000000000D+00  0.0000000000000D+00  0.0000000000000D+00
211  2.1000000000000D+00  0.0000000000000D+00  0.0000000000000D+00
212  2.1100000000000D+00  0.0000000000000D+00  0.0000000000000D+00
213  2.1200000000000D+00  0.0000000000000D+00  0.0000000000000D+00
214  2.1300000000000D+00  0.0000000000000D+00  0.0000000000000D+00
215  2.1400000000000D+00  0.0000000000000D+00  0.0000000000000D+00
216  2.1500000000000D+00  0.0000000000000D+00  0.0000000000000D+00
217  2.1600000000000D+00  0.0000000000000D+00  0.0000000000000D+00
218  2.1700000000000D+00  0.0000000000000D+00  0.0000000000000D+00
219  2.1800000000000D+00  0.0000000000000D+00  0.0000000000000D+00
220  2.1900000000000D+00  0.0000000000000D+00  0.0000000000000D+00
221  2.2000000000000D+00  0.0000000000000D+00  0.0000000000000D+00
222  2.2100000000000D+00  0.0000000000000D+00  0.0000000000000D+00
223  2.2200000000000D+00  0.0000000000000D+00  0.0000000000000D+00
224  2.2300000000000D+00  0.0000000000000D+00  0.0000000000000D+00
225  2.2400000000000D+00  0.0000000000000D+00  0.0000000000000D+00
226  2.2500000000000D+00  0.0000000000000D+00  0.0000000000000D+00
227  2.2600000000000D+00  0.0000000000000D+00  0.0000000000000D+00
228  2.2700000000000D+00  0.0000000000000D+00  0.0000000000000D+00
229  2.2800000000000D+00  0.0000000000000D+00  0.0000000000000D+00
230  2.2900000000000D+00  0.0000000000000D+00  0.0000000000000D+00
231  2.3000000000000D+00  0.0000000000000D+00  0.0000000000000D+00
232  2.3100000000000D+00  0.0000000000000D+00  0.0000000000000D+00
233  2.3200000000000D+00  0.0000000000000D+00  0.0000000000000D+00
234  2.3300000000000D+00  0.0000000000000D+00  0.0000000000000D+00
235  2.3400000000000D+00  0.0000000000000D+00  0.0000000000000D+00
236  2.3500000000000D+00  0.0000000000000D+00  0.0000000000000D+00
237  2.3600000000000D+00  0.0000000000000D+00  0.0000000000000D+00
238  2.3700000000000D+00  0.0000000000000D+00  0.0000000000000D+00
239  2.3800000000000D+00  0.0000000000000D+00  0.0000000000000D+00
240  2.3900000000000D+00  0.0000000000000D+00  0.0000000000000D+00
241  2.4000000000000D+00  0.0000000000000D+00  0.0000000000000D+00
242  2.4100000000000D+00  0.0000000000000D+00  0.0000000000000D+00
243  2.4200000000000D+00  0.0000000000000D+00  0.0000000000000D+00
244  2.4300000000000D+00  0.0000000000000D+00  0.0000000000000D+00
245  2.4400000000000D+00  0.0000000000000D+00  0.0000000000000D+00
246  2.4500000000000D+00  0.0000000000000D+00  0.0000000000000D+00
247  2.4600000000000D+00  0.0000000000000D+00  0.0000000000000D+00
248  2.4700000000000D+00  0.0000000000000D+00  0.0000000000000D+00
249  2.4800000000000D+00  0.0000000000000D+00  0.0000000000000D+00
250  2.4900000000000D+00  0.0000000000000D+00  0.0000000000000D+00
251  2.5000000000000D+00  0.0000000000000D+00  0.0000000000000D+00
252  2.5100000000000D+00  0.0000000000000D+00  0.0000000000000D+00
253  2.5200000000000D+00  0.0000000000000D+00  0.0000000000000D+00
254  2.5300000000000D+00  0.0000000000000D+00  0.0000000000000D+00
255  2.5400000000000D+00  0.0000000000000D+00  0.0000000000000D+00
256  2.5500000000000D+00  0.0000000000000D+00  0.0000000000000D+00
257  2.5600000000000D+00  0.0000000000000D+00  0.0000000000000D+00
258  2.5700000000000D+00  0.0000000000000D+00  0.0000000000000D+00
259  2.5800000000000D+00  0.0000000000000D+00  0.0000000000000D+00
260  2.5900000000000D+00  0.0000000000000D+00  0.0000000000000D+00
261  2.6000000000000D+00  0.0000000000000D+00  0.0000000000000D+00
262  2.6100000000000D+00  0.0000000000000D+00  0.0000000000000D+00
263  2.6200000000000D+00  0.0000000000000D+00  0.0000000000000D+00
264  2.6300000000000D+00  0.0000000000000D+00  0.0000000000000D+00
265  2.6400000000000D+00  0.0000000000000D+00  0.0000000000000D+00
266  2.6500000000000D+00  0.0000000000000D+00  0.0000000000000D+00
267  2.6600000000000D+00  0.0000000000000D+00  0.0000000000000D+00
268  2.6700000000000D+00  0.0000000000000D+00  0.0000000000000D+00
269  2.6800000000000D+00  0.0000000000000D+00  0.0000000000000D+00
270  2.6900000000000D+00  0.0000000000000D+00  0.0000000000000D+00
271  2.7000000000000D+00  0.0000000000000D+00  0.0000000000000D+00
272  2.7100000000000D+00  0.0000000000000D+00  0.0000000000000D+00
273  2.7200000000000D+00  0.0000000000000D+00  0.0000000000000D+00
274  2.7300000000000D+00  0.0000000000000D+00  0.0000000000000D+00
275  2.7400000000000D+00  0.0000000000000D+00  0.0000000000000D+00
276  2.7500000000000D+00  0.0000000000000D+00  0.0000000000000D+00
277  2.7600000000000D+00  0.0000000000000D+00  0.0000000000000D+00
278  2.7700000000000D+00  0.0000000000000D+00  0.0000000000000D+00
279  2.7800000000000D+00  0.0000000000000D+00  0.0000000000000D+00
280  2.7900000000000D+00  0.0000000000000D+00  0.0000000000000D+00
281  2.8000000000000D+00  0.0000000000000D+00  0.0000000000000D+00
282  2.8100000000000D+00  0.0000000000000D+00  0.0000000000000D+00
283  2.8200000000000D+00  0.0000000000000D+00  0.0000000000000D+00
284  2.8300000000000D+00  0.0000000000000D+00  0.0000000000000D+00
285  2.8400000000000D+00  0.0000000000000D+00  0.0000000000000D+00
286  2.8500000000000D+00  0.0000000000000D+00  0.0000000000000D+00
287  2.8600000000000D+00  0.0000000000000D+00  0.0000000000000D+00
288  2.8700000000000D+00  0.0000000000000D+00  0.0000000000000D+00
289  2.8800000000000D+00  0.0000000000000D+00  0.0000000000000D+00
290  2.8900000000000D+00  0.0000000000000D+00  0.0000000000000D+00
291  2.9000000000000D+00  0.0000000000000D+00  0.0000000000000D+00
292  2.9100000000000D+00  0.0000000000000D+00  0.0000000000000D+00
293  2.9200000000000D+00  0.0000000000000D+00  0.0000000000000D+00
294  2.9300000000000D+00  0.0000000000000D+00  0.0000000000000D+00
295  2.9400000000000D+00  0.0000000000000D+00  0.0000000000000D+00
296  2.9500000000000D+00  0.0000000000000D+00  0.0000000000000D+00
297  2.9600000000000D+00  0.0000000000000D+00  0.0000000000000D+00
298  2.9700000000000D+00  0.0000000000000D+00  0.0000000000000D+00
299  2.9800000000000D+00  0.0000000000000D+00  0.0000000000000D+00
300  2.9900000000000D+00  0.0000000000000D+00  0.0000000000000D+00
1                        -4.9413811638369D-01 -7.1265034218283D-08
1  0.0000000000000D+00  1.2125596632329D-06 -1.2796283870298D-06
2  1.0000000000000D-02  9.5180685346877D-03 -7.9556292802615D-03
3  2.0000000000000D-02  3.7692290132645D-02 -3.1411257341181D-02
4  3.0000000000000D-02  8.3401812776265D-02 -6.9153571418247D-02
5  4.0000000000000D-02  1.4484124408943D-01 -1.1922759137828D-01
6  5.0000000000000D-02  2.1961133830355D-01 -1.7903398458325D-01
7  6.0000000000000D-02  3.0483942192704D-01 -2.4545848823649D-01
8  7.0000000000000D-02  3.9732341686607D-01 -3.1502702522224D-01
9  8.0000000000000D-02  4.9369210718469D-01 -3.8407881982141D-01
10  9.0000000000000D-02  5.9057345243793D-01 -4.4894891918516D-01
11  1.0000000000000D-01  6.8476231949513D-01 -5.0615104936207D-01
12  1.1000000000000D-01  7.7337900850977D-01 -5.5255170172939D-01
13  1.2000000000000D-01  8.5401038812425D-01 -5.8552676344750D-01
14  1.3000000000000D-01  9.2482630941377D-01 -6.0309285235724D-01
15  1.4000000000000D-01  9.8466519607713D-01 -6.0400674841527D-01
16  1.5000000000000D-01  1.0330842499084D+00 -5.8782787815331D-01
17  1.6000000000000D-01  1.0703714897920D+00 -5.5494062214101D-01
18  1.7000000000000D-01  1.0975187714666D+00 -5.0653519183787D-01
19  1.8000000000000D-01  1.1161569184348D+00 -4.4454787131152D-01
20  1.9000000000000D-01  1.1284560329365D+00 -3.7156342746085D-01
21  2.0000000000000D-01  1.1369958529122D+00 -2.9068437672536D-01
22  2.1000000000000D-01  1.1446125859952D+00 -2.0537345117063D-01
23  2.2000000000000D-01  1.1542299054662D+00 -1.1927695957351D-01
24  2.3000000000000D-01  1.1686826714727D+00 -3.6037716370829D-02
25  2.4000000000000D-01  1.1905423975499D+00  4.0893230657252D-02
26  2.5000000000000D-01  1.2219534920734D+00  1.0843673726251D-01
27  2.6000000000000D-01  1.2644888631236D+00  1.6404857812650D-01
28  2.7000000000000D-01  1.3190326019413D+00  2.0585714623575D-01
29  2.8000000000000D-01  1.3856961947225D+00  2.3276883864212D-01
30  2.9000000000000D-01  1.4637731144498D+00  2.4453567466556D-01
31  3.0000000000000D-01  1.5517347900838D+00  2.4178151013653D-01
32  3.1000000000000D-01  1.6472689290527D+00  2.2598521477833D-01
33  3.2000000000000D-01  1.7473590787169D+00  1.9942127230815D-01
34  3.3000000000000D-01  1.8484022554654D+00  1.6506034230753D-01
35  3.4000000000000D-01  1.9463595475611D+00  1.2643429115157D-01
36  3.5000000000000D-01  2.0369329050084D+00  8.7471954206930D-02
37  3.6000000000000D-01  2.1157599514200D+00  5.2313353794306D-02
38  3.7000000000000D-01  2.1786176589613D+00  2.5111190311561D-02
39  3.8000000000000D-01  2.2216251697440D+00  9.8290943285974D-03
40  3.9000000000000D-01  2.2414359563213D+00  1.0046341783434D-02
41  4.0000000000000D-01  2.2354098985555D+00  2.8778479130621D-02
42  4.1000000000000D-01  2.2017566993632D+00  6.8322592429916D-02
43  4.2000000000000D-01  2.1396433306240D+00  1.3013481564089D-01
44  4.3000000000000D-01  2.0492598348342D+00  2.1474616131471D-01
45  4.4000000000000D-01  1.9318397319709D+00  3.2172094611055D-01
46  4.5000000000000D-01  1.7896334039359D+00  4.4966005663468D-01
47  4.6000000000000D-01  1.6258350501610D+00  5.9624915802203D-01
48  4.7000000000000D-01  1.4444660213146D+00  7.5834978945373D-01
49  4.8000000000000D-01  1.2502194372201D+00  9.3212922227781D-01
50  4.9000000000000D-01  1.0482728782644D+00  1.1132230781318D+00
51  5.0000000000000D-01  8.4407751520339D-01  1.2969231044125D+00
52  5.1000000000000D-01  6.4313323277128D-01  1.4783812653744D+00
53  5.2000000000000D-01  4.5076004788789D-01  1.6528204838203D+00
54  5.3000000000000D-01  2.7187638574501D-01  1.8157420073507D+00
55  5.4000000000000D-01  1.1079454105087D-01  1.9631194857897D+00
56  5.5000000000000D-01 -2.8957076466788D-02  2.0915704378040D+00
57  5.6000000000000D-01 -1.4477649570311D-01  2.1984968139611D+00
58  5.7000000000000D-01 -2.3508871492582D-01  2.2821877996420D+00
59  5.8000000000000D-01 -2.9939930256683D-01  2.3418797525210D+00
60  5.9000000000000D-01 -3.3829833060115D-01  2.3777701808722D+00
61  6.0000000000000D-01 -3.5341419588411D-01  2.3909848093152D+00
62  6.1000000000000D-01 -3.4731922790357D-01  2.3834989846047D+00
63  6.2000000000000D-01 -3.2339122212637D-01  2.3580167952063D+00
64  6.3000000000000D-01 -2.8563711384304D-01  2.3178132579403D+00
65  6.4000000000000D-01 -2.3848677939419D-01  2.2665466248410D+00
66  6.5000000000000D-01 -1.8656636088376D-01  2.2080492331492D+00
67  6.6000000000000D-01 -1.3446147962432D-01  2.1461062762848D+00
68  6.7000000000000D-01 -8.6481180998181D-02  2.0842323720939D+00
69  6.8000000000000D-01 -4.6433425886917D-02  2.0254558263048D+00
70  6.9000000000000D-01 -1.7409213522095D-02  1.9627849393194D+00
71  7.0000000000000D-01 -1.7808142451254D-03  2.0493788211748D+00
72  7.1000000000000D-01  6.8964979082573D-04  9.8384267248032D-01
73  7.2000000000000D-01 -1.3536170411930D-04 -1.5537322202251D-01
74  7.3000000000000D-01  1.7484749523931D-05  2.2315841057654D-02
75  7.4000000000000D-01 -2.9280647247393D-07 -6.5375186925740D-04
76  7.5000000000000D-01  0.0000000000000D+00  0.0000000000000D+00
77  7.6000000000000D-01  0.0000000000000D+00  0.0000000000000D+00
78  7.7000000000000D-01  0.0000000000000D+00  0.0000000000000D+00
79  7.8000000000000D-01  0.0000000000000D+00  0.0000000000000D+00
80  7.9000000000000D-01  0.0000000000000D+00  0.0000000000000D+00
81  8.0000000000000D-01  0.0000000000000D+00  0.0000000000000D+00
82  8.1000000000000D-01  0.0000000000000D+00  0.0000000000000D+00
83  8.2000000000000D-01  0.0000000000000D+00  0.0000000000000D+00
84  8.3000000000000D-01  0.0000000000000D+00  0.0000000000000D+00
85  8.4000000000000D-01  0.0000000000000D+00  0.0000000000000D+00
86  8.5000000000000D-01  0.0000000000000D+00  0.0000000000000D+00
87  8.6000000000000D-01  0.0000000000000D+00  0.0000000000000D+00
88  8.7000000000000D-01  0.0000000000000D+00  0.0000000000000D+00
89  8.8000000000000D-01  0.0000000000000D+00  0.0000000000000D+00
90  8.9000000000000D-01  0.0000000000000D+00  0.0000000000000D+00
91  9.0000000000000D-01  0.0000000000000D+00  0.0000000000000D+00
92  9.1000000000000D-01  0.0000000000000D+00  0.0000000000000D+00
93  9.2000000000000D-01  0.0000000000000D+00  0.0000000000000D+00
94  9.3000000000000D-01  0.0000000000000D+00  0.0000000000000D+00
95  9.4000000000000D-01  0.0000000000000D+00  0.0000000000000D+00
96  9.5000000000000D-01  0.0000000000000D+00  0.0000000000000D+00
97  9.6000000000000D-01  0.0000000000000D+00  0.0000000000000D+00
98  9.7000000000000D-01  0.0000000000000D+00  0.0000000000000D+00
99  9.8000000000000D-01  0.0000000000000D+00  0.0000000000000D+00
100  9.9000000000000D-01  0.0000000000000D+00  0.0000000000000D+00
101  1.0000000000000D+00  0.0000000000000D+00  0.0000000000000D+00
102  1.0100000000000D+00  0.0000000000000D+00  0.0000000000000D+00
103  1.0200000000000D+00  0.0000000000000D+00  0.0000000000000D+00
104  1.0300000000000D+00  0.0000000000000D+00  0.0000000000000D+00
105  1.0400000000000D+00  0.0000000000000D+00  0.0000000000000D+00
106  1.0500000000000D+00  0.0000000000000D+00  0.0000000000000D+00
107  1.0600000000000D+00  0.0000000000000D+00  0.0000000000000D+00
108  1.0700000000000D+00  0.0000000000000D+00  0.0000000000000D+00
109  1.0800000000000D+00  0.0000000000000D+00  0.0000000000000D+00
110  1.0900000000000D+00  0.0000000000000D+00  0.0000000000000D+00
111  1.1000000000000D+00  0.0000000000000D+00  0.0000000000000D+00
112  1.1100000000000D+00  0.0000000000000D+00  0.0000000000000D+00
113  1.1200000000000D+00  0.0000000000000D+00  0.0000000000000D+00
114  1.1300000000000D+00  0.0000000000000D+00  0.0000000000000D+00
115  1.1400000000000D+00  0.0000000000000D+00  0.0000000000000D+00
116  1.1500000000000D+00  0.0000000000000D+00  0.0000000000000D+00
117  1.1600000000000D+00  0.0000000000000D+00  0.0000000000000D+00
118  1.1700000000000D+00  0.0000000000000D+00  0.0000000000000D+00
119  1.1800000000000D+00  0.0000000000000D+00  0.0000000000000D+00
120  1.1900000000000D+00  0.0000000000000D+00  0.0000000000000D+00
121  1.2000000000000D+00  0.0000000000000D+00  0.0000000000000D+00
122  1.2100000000000D+00  0.0000000000000D+00  0.0000000000000D+00
123  1.2200000000000D+00  0.0000000000000D+00  0.0000000000000D+00
124  1.2300000000000D+00  0.0000000000000D+00  0.0000000000000D+00
125  1.2400000000000D+00  0.0000000000000D+00  0.0000000000000D+00
126  1.2500000000000D+00  0.0000000000000D+00  0.0000000000000D+00
127  1.2600000000000D+00  0.0000000000000D+00  0.0000000000000D+00
128  1.2700000000000D+00  0.0000000000000D+00  0.0000000000000D+00
129  1.2800000000000D+00  0.0000000000000D+00  0.0000000000000D+00
130  1.2900000000000D+00  0.0000000000000D+00  0.0000000000000D+00
131  1.3000000000000D+00  0.0000000000000D+00  0.0000000000000D+00
132  1.3100000000000D+00  0.0000000000000D+00  0.0000000000000D+00
133  1.3200000000000D+00  0.0000000000000D+00  0.0000000000000D+00
134  1.3300000000000D+00  0.0000000000000D+00  0.0000000000000D+00
135  1.3400000000000D+00  0.0000000000000D+00  0.0000000000000D+00
136  1.3500000000000D+00  0.0000000000000D+00  0.0000000000000D+00
137  1.3600000000000D+00  0.0000000000000D+00  0.0000000000000D+00
138  1.3700000000000D+00  0.0000000000000D+00  0.0000000000000D+00
139  1.3800000000000D+00  0.0000000000000D+00  0.0000000000000D+00
140  1.3900000000000D+00  0.0000000000000D+00  0.0000000000000D+00
141  1.4000000000000D+00  0.0000000000000D+00  0.0000000000000D+00
142  1.4100000000000D+00  0.0000000000000D+00  0.0000000000000D+00
143  1.4200000000000D+00  0.0000000000000D+00  0.0000000000000D+00
144  1.4300000000000D+00  0.0000000000000D+00  0.0000000000000D+00