He    ONCVPSP-3.3.0  r_core=   1.26476   1.13601
2.0000      2.0000      180503    zatom,zion,pspd
8 -116133   1     4   600     0    pspcod,pspxc,lmax,lloc,mmax,r2well
5.99000000  0.00000000  0.00000000    rchrg fchrg qchrg
2     2     0     0    nproj
3     1           extension_switch
2     0     0    nprojso
0                        -3.4879513457889D+00 -7.9283901573447D-01
1  0.0000000000000D+00 -2.3223242218151D-09  7.0714026856322D-09
2  1.0000000000000D-02  1.0941930076004D-01 -5.2053231206783D-02
3  2.0000000000000D-02  2.1839094382594D-01 -1.0352511781114D-01
4  3.0000000000000D-02  3.2647040837538D-01 -1.5384102023462D-01
5  4.0000000000000D-02  4.3321941006308D-01 -2.0243960550721D-01
6  5.0000000000000D-02  5.3820892670105D-01 -2.4877924382646D-01
7  6.0000000000000D-02  6.4102211456024D-01 -2.9234410217861D-01
8  7.0000000000000D-02  7.4125708161989D-01 -3.3264984253148D-01
9  8.0000000000000D-02  8.3852948641343D-01 -3.6924883918098D-01
10  9.0000000000000D-02  9.3247493394181D-01 -4.0173483841963D-01
11  1.0000000000000D-01  1.0227511433964D+00 -4.2974699363794D-01
12  1.1000000000000D-01  1.1090398660935D+00 -4.5297322007949D-01
13  1.2000000000000D-01  1.1910485360052D+00 -4.7115282554125D-01
14  1.3000000000000D-01  1.2685116395034D+00 -4.8407838611498D-01
15  1.4000000000000D-01  1.3411917953406D+00 -4.9159684936407D-01
16  1.5000000000000D-01  1.4088805403900D+00 -4.9360986087416D-01
17  1.6000000000000D-01  1.4713988211804D+00 -4.9007332365145D-01
18  1.7000000000000D-01  1.5285971957034D+00 -4.8099621311689D-01
19  1.8000000000000D-01  1.5803557542692D+00 -4.6643868321078D-01
20  1.9000000000000D-01  1.6265837722531D+00 -4.4650951114063D-01
21  2.0000000000000D-01  1.6672191113547D+00 -4.2136293935372D-01
22  2.1000000000000D-01  1.7022273893984D+00 -3.9119498318961D-01
23  2.2000000000000D-01  1.7316009416969D+00 -3.5623928118271D-01
24  2.3000000000000D-01  1.7553575995150D+00 -3.1676257198755D-01
25  2.4000000000000D-01  1.7735393131744D+00 -2.7305988725910D-01
26  2.5000000000000D-01  1.7862106487968D+00 -2.2544955344410D-01
27  2.6000000000000D-01  1.7934571885721D+00 -1.7426809726209D-01
28  2.7000000000000D-01  1.7953838647509D+00 -1.1986514965080D-01
29  2.8000000000000D-01  1.7921132572949D+00 -6.2598441124028D-02
30  2.9000000000000D-01  1.7837838842887D+00 -2.8289778866814D-03
31  3.0000000000000D-01  1.7705485128441D+00  5.9083517256744D-02
32  3.1000000000000D-01  1.7525725163476D+00  1.2278482206455D-01
33  3.2000000000000D-01  1.7300323015494D+00  1.8793002130954D-01
34  3.3000000000000D-01  1.7031138262337D+00  2.5418684338068D-01
35  3.4000000000000D-01  1.6720112250888D+00  3.2123847862792D-01
36  3.5000000000000D-01  1.6369255579876D+00  3.8878584265595D-01
37  3.6000000000000D-01  1.5980636912672D+00  4.5654926003415D-01
38  3.7000000000000D-01  1.5556373188275D+00  5.2426955655097D-01
39  3.8000000000000D-01  1.5098621260451D+00  5.9170856095730D-01
40  3.9000000000000D-01  1.4609570956821D+00  6.5864902985192D-01
41  4.0000000000000D-01  1.4091439512609D+00  7.2489402171398D-01
42  4.1000000000000D-01  1.3546467298301D+00  7.9026575783290D-01
43  4.2000000000000D-01  1.2976914727545D+00  8.5460401879109D-01
44  4.3000000000000D-01  1.2385060201823D+00  9.1776413499728D-01
45  4.4000000000000D-01  1.1773198922420D+00  9.7961463835205D-01
46  4.5000000000000D-01  1.1143642378508D+00  1.0400346492726D+00
47  4.6000000000000D-01  1.0498718303276D+00  1.0989110788687D+00
48  4.7000000000000D-01  9.8407708782427D-01  1.1561357299266D+00
49  4.8000000000000D-01  9.1721609595542D-01  1.2116023824350D+00
50  4.9000000000000D-01  8.4952660992244D-01  1.2652039496427D+00
51  5.0000000000000D-01  7.8124801390816D-01  1.3168297890376D+00
52  5.1000000000000D-01  7.1262121654480D-01  1.3663632492260D+00
53  5.2000000000000D-01  6.4388846281959D-01  1.4136795285169D+00
54  5.3000000000000D-01  5.7529304484430D-01  1.4586439141761D+00
55  5.4000000000000D-01  5.0707889643737D-01  1.5011104629517D+00
56  5.5000000000000D-01  4.3949005940469D-01  1.5409211737108D+00
57  5.6000000000000D-01  3.7277001268585D-01  1.5779056921167D+00
58  5.7000000000000D-01  3.0716085910969D-01  1.6118815753521D+00
59  5.8000000000000D-01  2.4290236827936D-01  1.6426551322725D+00
60  5.9000000000000D-01  1.8023087802816D-01  1.6700228412327D+00
61  6.0000000000000D-01  1.1937806084806D-01  1.6937733344969D+00
62  6.1000000000000D-01  6.0569565636556D-02  1.7136899248146D+00
63  6.2000000000000D-01  4.0235489117717D-03  1.7295536367994D+00
64  6.3000000000000D-01 -5.0050886718795D-02  1.7411466932925D+00
65  6.4000000000000D-01 -1.0145532572692D-01  1.7482563953833D+00
66  6.5000000000000D-01 -1.5000372036549D-01  1.7506793242559D+00
67  6.6000000000000D-01 -1.9552409223882D-01  1.7482257838668D+00
68  6.7000000000000D-01 -2.3786022600463D-01  1.7407243958309D+00
69  6.8000000000000D-01 -2.7687332492546D-01  1.7280267519067D+00
70  6.9000000000000D-01 -3.1244359703083D-01  1.7100120253450D+00
71  7.0000000000000D-01 -3.4447174030677D-01  1.6865914401798D+00
72  7.1000000000000D-01 -3.7288029561021D-01  1.6577124973401D+00
73  7.2000000000000D-01 -3.9761483693705D-01  1.6233628583316D+00
74  7.3000000000000D-01 -4.1864497023390D-01  1.5835737911360D+00
75  7.4000000000000D-01 -4.3596511412587D-01  1.5384230888634D+00
76  7.5000000000000D-01 -4.4959503871011D-01  1.4880373795109D+00
77  7.6000000000000D-01 -4.5958014188243D-01  1.4325937547554D+00
78  7.7000000000000D-01 -4.6599144648600D-01  1.3723206569329D+00
79  7.8000000000000D-01 -4.6892530583375D-01  1.3074979760408D+00
80  7.9000000000000D-01 -4.6850280976605D-01  1.2384563224561D+00
81  8.0000000000000D-01 -4.6486888831125D-01  1.1655754559263D+00
82  8.1000000000000D-01 -4.5819111511364D-01  1.0892818669477D+00
83  8.2000000000000D-01 -4.4865821799670D-01  1.0100455226177D+00
84  8.3000000000000D-01 -4.3647830924265D-01  9.2837580515272D-01
85  8.4000000000000D-01 -4.2187685329563D-01  8.4481668717878D-01
86  8.5000000000000D-01 -4.0509439453996D-01  7.5994120334444D-01
87  8.6000000000000D-01 -3.8638407247146D-01  6.7434529246508D-01
88  8.7000000000000D-01 -3.6600895587890D-01  5.8864109800675D-01
89  8.8000000000000D-01 -3.4423923149959D-01  5.0344982698258D-01
90  8.9000000000000D-01 -3.2134928592927D-01  4.1939427802132D-01
91  9.0000000000000D-01 -2.9761472228406D-01  3.3709115825375D-01
92  9.1000000000000D-01 -2.7330935517139D-01  2.5714331555944D-01
93  9.2000000000000D-01 -2.4870222888053D-01  1.8013201746991D-01
94  9.3000000000000D-01 -2.2405470431650D-01  1.0660941051632D-01
95  9.4000000000000D-01 -1.9961766005065D-01  3.7091293966205D-02
96  9.5000000000000D-01 -1.7562885193983D-01 -2.7949660320772D-02
97  9.6000000000000D-01 -1.5231047408871D-01 -8.8090114732057D-02
98  9.7000000000000D-01 -1.2986696143652D-01 -1.4296157930603D-01
99  9.8000000000000D-01 -1.0848307170501D-01 -1.9225511834314D-01
100  9.9000000000000D-01 -8.8322279936041D-02 -2.3572515111351D-01
101  1.0000000000000D+00 -6.9525490653947D-02 -2.7319235479967D-01
102  1.0100000000000D+00 -5.2210227755182D-02 -3.0454504747842D-01
103  1.0200000000000D+00 -3.6469740551493D-02 -3.2974136267544D-01
104  1.0300000000000D+00 -2.2371613648957D-02 -3.4881380885847D-01
105  1.0400000000000D+00 -9.9567066524856D-03 -3.6187263698235D-01
106  1.0500000000000D+00  7.6057999964117D-04 -3.6910411344575D-01
107  1.0600000000000D+00  9.7916032377016D-03 -3.7076745348774D-01
108  1.0700000000000D+00  1.7172420122183D-02 -3.6719074903338D-01
109  1.0800000000000D+00  2.2962367116771D-02 -3.5876582938193D-01
110  1.0900000000000D+00  2.7242304092150D-02 -3.4594214685527D-01
111  1.1000000000000D+00  3.0112553612185D-02 -3.2921978139618D-01
112  1.1100000000000D+00  3.1690569753021D-02 -3.0914166707089D-01
113  1.1200000000000D+00  3.2108374872491D-02 -2.8628515676432D-01
114  1.1300000000000D+00  3.1509807013617D-02 -2.6125305443213D-01
115  1.1400000000000D+00  3.0047623564210D-02 -2.3466425347284D-01
116  1.1500000000000D+00  2.7880508987803D-02 -2.0714412599545D-01
117  1.1600000000000D+00  2.5170036558899D-02 -1.7931481490582D-01
118  1.1700000000000D+00  2.2077634487136D-02 -1.5178558208142D-01
119  1.1800000000000D+00  1.8761607410569D-02 -1.2514336779773D-01
120  1.1900000000000D+00  1.5374261653919D-02 -9.9943708007018D-02
121  1.2000000000000D+00  1.2059182225053D-02 -7.6702155715528D-02
122  1.2100000000000D+00  8.9487072686170D-03 -5.5886346010166D-02
123  1.2200000000000D+00  6.1616425516397D-03 -3.7908834160577D-02
124  1.2300000000000D+00  3.8026853419375D-03 -2.3129415037224D-02
125  1.2400000000000D+00  1.9458323396947D-03 -1.1759825428100D-02
126  1.2500000000000D+00  6.8707568017447D-04 -4.1873333233486D-03
127  1.2600000000000D+00  7.9344211977832D-05 -5.8513727640700D-04
128  1.2700000000000D+00 -5.6769581120589D-05  2.5975786124773D-04
129  1.2800000000000D+00  2.8577995661729D-07 -1.4287699183118D-06
130  1.2900000000000D+00  1.1963276563111D-05 -6.1311722641551D-05
131  1.3000000000000D+00 -2.4108767422960D-06  1.1988752400899D-05
132  1.3100000000000D+00 -4.3318419641912D-07  2.1775448628924D-06
133  1.3200000000000D+00  7.6737592566725D-08 -1.6136840865098D-07
134  1.3300000000000D+00  0.0000000000000D+00  0.0000000000000D+00
135  1.3400000000000D+00  0.0000000000000D+00  0.0000000000000D+00
136  1.3500000000000D+00  0.0000000000000D+00  0.0000000000000D+00
137  1.3600000000000D+00  0.0000000000000D+00  0.0000000000000D+00
138  1.3700000000000D+00  0.0000000000000D+00  0.0000000000000D+00
139  1.3800000000000D+00  0.0000000000000D+00  0.0000000000000D+00
140  1.3900000000000D+00  0.0000000000000D+00  0.0000000000000D+00
141  1.4000000000000D+00  0.0000000000000D+00  0.0000000000000D+00
142  1.4100000000000D+00  0.0000000000000D+00  0.0000000000000D+00
143  1.4200000000000D+00  0.0000000000000D+00  0.0000000000000D+00
144  1.4300000000000D+00  0.0000000000000D+00  0.0000000000000D+00
145  1.4400000000000D+00  0.0000000000000D+00  0.0000000000000D+00
146  1.4500000000000D+00  0.0000000000000D+00  0.0000000000000D+00
147  1.4600000000000D+00  0.0000000000000D+00  0.0000000000000D+00
148  1.4700000000000D+00  0.0000000000000D+00  0.0000000000000D+00
149  1.4800000000000D+00  0.0000000000000D+00  0.0000000000000D+00
150  1.4900000000000D+00  0.0000000000000D+00  0.0000000000000D+00
151  1.5000000000000D+00  0.0000000000000D+00  0.0000000000000D+00
152  1.5100000000000D+00  0.0000000000000D+00  0.0000000000000D+00
153  1.5200000000000D+00  0.0000000000000D+00  0.0000000000000D+00
154  1.5300000000000D+00  0.0000000000000D+00  0.0000000000000D+00
155  1.5400000000000D+00  0.0000000000000D+00  0.0000000000000D+00
156  1.5500000000000D+00  0.0000000000000D+00  0.0000000000000D+00
157  1.5600000000000D+00  0.0000000000000D+00  0.0000000000000D+00
158  1.5700000000000D+00  0.0000000000000D+00  0.0000000000000D+00
159  1.5800000000000D+00  0.0000000000000D+00  0.0000000000000D+00
160  1.5900000000000D+00  0.0000000000000D+00  0.0000000000000D+00
161  1.6000000000000D+00  0.0000000000000D+00  0.0000000000000D+00
162  1.6100000000000D+00  0.0000000000000D+00  0.0000000000000D+00
163  1.6200000000000D+00  0.0000000000000D+00  0.0000000000000D+00
164  1.6300000000000D+00  0.0000000000000D+00  0.0000000000000D+00
165  1.6400000000000D+00  0.0000000000000D+00  0.0000000000000D+00
166  1.6500000000000D+00  0.0000000000000D+00  0.0000000000000D+00
167  1.6600000000000D+00  0.0000000000000D+00  0.0000000000000D+00
168  1.6700000000000D+00  0.0000000000000D+00  0.0000000000000D+00
169  1.6800000000000D+00  0.0000000000000D+00  0.0000000000000D+00
170  1.6900000000000D+00  0.0000000000000D+00  0.0000000000000D+00
171  1.7000000000000D+00  0.0000000000000D+00  0.0000000000000D+00
172  1.7100000000000D+00  0.0000000000000D+00  0.0000000000000D+00
173  1.7200000000000D+00  0.0000000000000D+00  0.0000000000000D+00
174  1.7300000000000D+00  0.0000000000000D+00  0.0000000000000D+00
175  1.7400000000000D+00  0.0000000000000D+00  0.0000000000000D+00
176  1.7500000000000D+00  0.0000000000000D+00  0.0000000000000D+00
177  1.7600000000000D+00  0.0000000000000D+00  0.0000000000000D+00
178  1.7700000000000D+00  0.0000000000000D+00  0.0000000000000D+00
179  1.7800000000000D+00  0.0000000000000D+00  0.0000000000000D+00
180  1.7900000000000D+00  0.0000000000000D+00  0.0000000000000D+00
181  1.8000000000000D+00  0.0000000000000D+00  0.0000000000000D+00
182  1.8100000000000D+00  0.0000000000000D+00  0.0000000000000D+00
183  1.8200000000000D+00  0.0000000000000D+00  0.0000000000000D+00
184  1.8300000000000D+00  0.0000000000000D+00  0.0000000000000D+00
185  1.8400000000000D+00  0.0000000000000D+00  0.0000000000000D+00
186  1.8500000000000D+00  0.0000000000000D+00  0.0000000000000D+00
187  1.8600000000000D+00  0.0000000000000D+00  0.0000000000000D+00
188  1.8700000000000D+00  0.0000000000000D+00  0.0000000000000D+00
189  1.8800000000000D+00  0.0000000000000D+00  0.0000000000000D+00
190  1.8900000000000D+00  0.0000000000000D+00  0.0000000000000D+00
191  1.9000000000000D+00  0.0000000000000D+00  0.0000000000000D+00
192  1.9100000000000D+00  0.0000000000000D+00  0.0000000000000D+00
193  1.9200000000000D+00  0.0000000000000D+00  0.0000000000000D+00
194  1.9300000000000D+00  0.0000000000000D+00  0.0000000000000D+00
195  1.9400000000000D+00  0.0000000000000D+00  0.0000000000000D+00
196  1.9500000000000D+00  0.0000000000000D+00  0.0000000000000D+00
197  1.9600000000000D+00  0.0000000000000D+00  0.0000000000000D+00
198  1.9700000000000D+00  0.0000000000000D+00  0.0000000000000D+00
199  1.9800000000000D+00  0.0000000000000D+00  0.0000000000000D+00
200  1.9900000000000D+00  0.0000000000000D+00  0.0000000000000D+00
201  2.0000000000000D+00  0.0000000000000D+00  0.0000000000000D+00
202  2.0100000000000D+00  0.0000000000000D+00  0.0000000000000D+00
203  2.0200000000000D+00  0.0000000000000D+00  0.0000000000000D+00
204  2.0300000000000D+00  0.0000000000000D+00  0.0000000000000D+00
205  2.0400000000000D+00  0.0000000000000D+00  0.0000000000000D+00
206  2.0500000000000D+00  0.0000000000000D+00  0.0000000000000D+00
207  2.0600000000000D+00  0.0000000000000D+00  0.0000000000000D+00
208  2.0700000000000D+00  0.0000000000000D+00  0.0000000000000D+00
209  2.0800000000000D+00  0.0000000000000D+00  0.0000000000000D+00
210  2.0900000000000D+00  0.0000000000000D+00  0.0000000000000D+00
211  2.1000000000000D+00  0.0000000000000D+00  0.0000000000000D+00
212  2.1100000000000D+00  0.0000000000000D+00  0.0000000000000D+00
213  2.1200000000000D+00  0.0000000000000D+00  0.0000000000000D+00
214  2.1300000000000D+00  0.0000000000000D+00  0.0000000000000D+00
215  2.1400000000000D+00  0.0000000000000D+00  0.0000000000000D+00
216  2.1500000000000D+00  0.0000000000000D+00  0.0000000000000D+00
217  2.1600000000000D+00  0.0000000000000D+00  0.0000000000000D+00
218  2.1700000000000D+00  0.0000000000000D+00  0.0000000000000D+00
219  2.1800000000000D+00  0.0000000000000D+00  0.0000000000000D+00
220  2.1900000000000D+00  0.0000000000000D+00  0.0000000000000D+00
221  2.2000000000000D+00  0.0000000000000D+00  0.0000000000000D+00
222  2.2100000000000D+00  0.0000000000000D+00  0.0000000000000D+00
223  2.2200000000000D+00  0.0000000000000D+00  0.0000000000000D+00
224  2.2300000000000D+00  0.0000000000000D+00  0.0000000000000D+00
225  2.2400000000000D+00  0.0000000000000D+00  0.0000000000000D+00
226  2.2500000000000D+00  0.0000000000000D+00  0.0000000000000D+00
227  2.2600000000000D+00  0.0000000000000D+00  0.0000000000000D+00
228  2.2700000000000D+00  0.0000000000000D+00  0.0000000000000D+00
229  2.2800000000000D+00  0.0000000000000D+00  0.0000000000000D+00
230  2.2900000000000D+00  0.0000000000000D+00  0.0000000000000D+00
231  2.3000000000000D+00  0.0000000000000D+00  0.0000000000000D+00
232  2.3100000000000D+00  0.0000000000000D+00  0.0000000000000D+00
233  2.3200000000000D+00  0.0000000000000D+00  0.0000000000000D+00
234  2.3300000000000D+00  0.0000000000000D+00  0.0000000000000D+00
235  2.3400000000000D+00  0.0000000000000D+00  0.0000000000000D+00
236  2.3500000000000D+00  0.0000000000000D+00  0.0000000000000D+00
237  2.3600000000000D+00  0.0000000000000D+00  0.0000000000000D+00
238  2.3700000000000D+00  0.0000000000000D+00  0.0000000000000D+00
239  2.3800000000000D+00  0.0000000000000D+00  0.0000000000000D+00
240  2.3900000000000D+00  0.0000000000000D+00  0.0000000000000D+00
241  2.4000000000000D+00  0.0000000000000D+00  0.0000000000000D+00
242  2.4100000000000D+00  0.0000000000000D+00  0.0000000000000D+00
243  2.4200000000000D+00  0.0000000000000D+00  0.0000000000000D+00
244  2.4300000000000D+00  0.0000000000000D+00  0.0000000000000D+00
245  2.4400000000000D+00  0.0000000000000D+00  0.0000000000000D+00
246  2.4500000000000D+00  0.0000000000000D+00  0.0000000000000D+00
247  2.4600000000000D+00  0.0000000000000D+00  0.0000000000000D+00
248  2.4700000000000D+00  0.0000000000000D+00  0.0000000000000D+00
249  2.4800000000000D+00  0.0000000000000D+00  0.0000000000000D+00
250  2.4900000000000D+00  0.0000000000000D+00  0.0000000000000D+00
251  2.5000000000000D+00  0.0000000000000D+00  0.0000000000000D+00
252  2.5100000000000D+00  0.0000000000000D+00  0.0000000000000D+00
253  2.5200000000000D+00  0.0000000000000D+00  0.0000000000000D+00
254  2.5300000000000D+00  0.0000000000000D+00  0.0000000000000D+00
255  2.5400000000000D+00  0.0000000000000D+00  0.0000000000000D+00
256  2.5500000000000D+00  0.0000000000000D+00  0.0000000000000D+00
257  2.5600000000000D+00  0.0000000000000D+00  0.0000000000000D+00
258  2.5700000000000D+00  0.0000000000000D+00  0.0000000000000D+00
259  2.5800000000000D+00  0.0000000000000D+00  0.0000000000000D+00
260  2.5900000000000D+00  0.0000000000000D+00  0.0000000000000D+00
261  2.6000000000000D+00  0.0000000000000D+00  0.0000000000000D+00
262  2.6100000000000D+00  0.0000000000000D+00  0.0000000000000D+00
263  2.6200000000000D+00  0.0000000000000D+00  0.0000000000000D+00
264  2.6300000000000D+00  0.0000000000000D+00  0.0000000000000D+00
265  2.6400000000000D+00  0.0000000000000D+00  0.0000000000000D+00
266  2.6500000000000D+00  0.0000000000000D+00  0.0000000000000D+00
267  2.6600000000000D+00  0.0000000000000D+00  0.0000000000000D+00
268  2.6700000000000D+00  0.0000000000000D+00  0.0000000000000D+00
269  2.6800000000000D+00  0.0000000000000D+00  0.0000000000000D+00
270  2.6900000000000D+00  0.0000000000000D+00  0.0000000000000D+00
271  2.7000000000000D+00  0.0000000000000D+00  0.0000000000000D+00
272  2.7100000000000D+00  0.0000000000000D+00  0.0000000000000D+00
273  2.7200000000000D+00  0.0000000000000D+00  0.0000000000000D+00
274  2.7300000000000D+00  0.0000000000000D+00  0.0000000000000D+00
275  2.7400000000000D+00  0.0000000000000D+00  0.0000000000000D+00
276  2.7500000000000D+00  0.0000000000000D+00  0.0000000000000D+00
277  2.7600000000000D+00  0.0000000000000D+00  0.0000000000000D+00
278  2.7700000000000D+00  0.0000000000000D+00  0.0000000000000D+00
279  2.7800000000000D+00  0.0000000000000D+00  0.0000000000000D+00
280  2.7900000000000D+00  0.0000000000000D+00  0.0000000000000D+00
281  2.8000000000000D+00  0.0000000000000D+00  0.0000000000000D+00
282  2.8100000000000D+00  0.0000000000000D+00  0.0000000000000D+00
283  2.8200000000000D+00  0.0000000000000D+00  0.0000000000000D+00
284  2.8300000000000D+00  0.0000000000000D+00  0.0000000000000D+00
285  2.8400000000000D+00  0.0000000000000D+00  0.0000000000000D+00
286  2.8500000000000D+00  0.0000000000000D+00  0.0000000000000D+00
287  2.8600000000000D+00  0.0000000000000D+00  0.0000000000000D+00
288  2.8700000000000D+00  0.0000000000000D+00  0.0000000000000D+00
289  2.8800000000000D+00  0.0000000000000D+00  0.0000000000000D+00
290  2.8900000000000D+00  0.0000000000000D+00  0.0000000000000D+00
291  2.9000000000000D+00  0.0000000000000D+00  0.0000000000000D+00
292  2.9100000000000D+00  0.0000000000000D+00  0.0000000000000D+00
293  2.9200000000000D+00  0.0000000000000D+00  0.0000000000000D+00
294  2.9300000000000D+00  0.0000000000000D+00  0.0000000000000D+00
295  2.9400000000000D+00  0.0000000000000D+00  0.0000000000000D+00
296  2.9500000000000D+00  0.0000000000000D+00  0.0000000000000D+00
297  2.9600000000000D+00  0.0000000000000D+00  0.0000000000000D+00
298  2.9700000000000D+00  0.0000000000000D+00  0.0000000000000D+00
299  2.9800000000000D+00  0.0000000000000D+00  0.0000000000000D+00
300  2.9900000000000D+00  0.0000000000000D+00  0.0000000000000D+00
301  3.0000000000000D+00  0.0000000000000D+00  0.0000000000000D+00
302  3.0100000000000D+00  0.0000000000000D+00  0.0000000000000D+00
303  3.0200000000000D+00  0.0000000000000D+00  0.0000000000000D+00
304  3.0300000000000D+00  0.0000000000000D+00  0.0000000000000D+00
305  3.0400000000000D+00  0.0000000000000D+00  0.0000000000000D+00
306  3.0500000000000D+00  0.0000000000000D+00  0.0000000000000D+00
307  3.0600000000000D+00  0.0000000000000D+00  0.0000000000000D+00
308  3.0700000000000D+00  0.0000000000000D+00  0.0000000000000D+00
309  3.0800000000000D+00  0.0000000000000D+00  0.0000000000000D+00
310  3.0900000000000D+00  0.0000000000000D+00  0.0000000000000D+00
311  3.1000000000000D+00  0.0000000000000D+00  0.0000000000000D+00
312  3.1100000000000D+00  0.0000000000000D+00  0.0000000000000D+00
313  3.1200000000000D+00  0.0000000000000D+00  0.0000000000000D+00
314  3.1300000000000D+00  0.0000000000000D+00  0.0000000000000D+00
315  3.1400000000000D+00  0.0000000000000D+00  0.0000000000000D+00
316  3.1500000000000D+00  0.0000000000000D+00  0.0000000000000D+00
317  3.1600000000000D+00  0.0000000000000D+00  0.0000000000000D+00
318  3.1700000000000D+00  0.0000000000000D+00  0.0000000000000D+00
319  3.1800000000000D+00  0.0000000000000D+00  0.0000000000000D+00
320  3.1900000000000D+00  0.0000000000000D+00  0.0000000000000D+00
321  3.2000000000000D+00  0.0000000000000D+00  0.0000000000000D+00
322  3.2100000000000D+00  0.0000000000000D+00  0.0000000000000D+00
323  3.2200000000000D+00  0.0000000000000D+00  0.0000000000000D+00
324  3.2300000000000D+00  0.0000000000000D+00  0.0000000000000D+00
325  3.2400000000000D+00  0.0000000000000D+00  0.0000000000000D+00
326  3.2500000000000D+00  0.0000000000000D+00  0.0000000000000D+00
327  3.2600000000000D+00  0.0000000000000D+00  0.0000000000000D+00
328  3.2700000000000D+00  0.0000000000000D+00  0.0000000000000D+00
329  3.2800000000000D+00  0.0000000000000D+00  0.0000000000000D+00
330  3.2900000000000D+00  0.0000000000000D+00  0.0000000000000D+00
331  3.3000000000000D+00  0.0000000000000D+00  0.0000000000000D+00
332  3.3100000000000D+00  0.0000000000000D+00  0.0000000000000D+00
333  3.3200000000000D+00  0.0000000000000D+00  0.0000000000000D+00
334  3.3300000000000D+00  0.0000000000000D+00  0.0000000000000D+00
335  3.3400000000000D+00  0.0000000000000D+00  0.0000000000000D+00
336  3.3500000000000D+00  0.0000000000000D+00  0.0000000000000D+00
337  3.3600000000000D+00  0.0000000000000D+00  0.0000000000000D+00
338  3.3700000000000D+00  0.0000000000000D+00  0.0000000000000D+00
339  3.3800000000000D+00  0.0000000000000D+00  0.0000000000000D+00
340  3.3900000000000D+00  0.0000000000000D+00  0.0000000000000D+00
341  3.4000000000000D+00  0.0000000000000D+00  0.0000000000000D+00
342  3.4100000000000D+00  0.0000000000000D+00  0.0000000000000D+00
343  3.4200000000000D+00  0.0000000000000D+00  0.0000000000000D+00
344  3.4300000000000D+00  0.0000000000000D+00  0.0000000000000D+00
345  3.4400000000000D+00  0.0000000000000D+00  0.0000000000000D+00
346  3.4500000000000D+00  0.0000000000000D+00  0.0000000000000D+00
347  3.4600000000000D+00  0.0000000000000D+00  0.0000000000000D+00
348  3.4700000000000D+00  0.0000000000000D+00  0.0000000000000D+00
349  3.4800000000000D+00  0.0000000000000D+00  0.0000000000000D+00
350  3.4900000000000D+00  0.0000000000000D+00  0.0000000000000D+00
351  3.5000000000000D+00  0.0000000000000D+00  0.0000000000000D+00
352  3.5100000000000D+00  0.0000000000000D+00  0.0000000000000D+00
353  3.5200000000000D+00  0.0000000000000D+00  0.0000000000000D+00
354  3.5300000000000D+00  0.0000000000000D+00  0.0000000000000D+00
355  3.5400000000000D+00  0.0000000000000D+00  0.0000000000000D+00
356  3.5500000000000D+00  0.0000000000000D+00  0.0000000000000D+00
357  3.5600000000000D+00  0.0000000000000D+00  0.0000000000000D+00
358  3.5700000000000D+00  0.0000000000000D+00  0.0000000000000D+00
359  3.5800000000000D+00  0.0000000000000D+00  0.0000000000000D+00
360  3.5900000000000D+00  0.0000000000000D+00  0.0000000000000D+00
361  3.6000000000000D+00  0.0000000000000D+00  0.0000000000000D+00
362  3.6100000000000D+00  0.0000000000000D+00  0.0000000000000D+00
363  3.6200000000000D+00  0.0000000000000D+00  0.0000000000000D+00
364  3.6300000000000D+00  0.0000000000000D+00  0.0000000000000D+00
365  3.6400000000000D+00  0.0000000000000D+00  0.0000000000000D+00
366  3.6500000000000D+00  0.0000000000000D+00  0.0000000000000D+00
367  3.6600000000000D+00  0.0000000000000D+00  0.0000000000000D+00
368  3.6700000000000D+00  0.0000000000000D+00  0.0000000000000D+00
369  3.6800000000000D+00  0.0000000000000D+00  0.0000000000000D+00
370  3.6900000000000D+00  0.0000000000000D+00  0.0000000000000D+00
371  3.7000000000000D+00  0.0000000000000D+00  0.0000000000000D+00
372  3.7100000000000D+00  0.0000000000000D+00  0.0000000000000D+00
373  3.7200000000000D+00  0.0000000000000D+00  0.0000000000000D+00
374  3.7300000000000D+00  0.0000000000000D+00  0.0000000000000D+00
375  3.7400000000000D+00  0.0000000000000D+00  0.0000000000000D+00
376  3.7500000000000D+00  0.0000000000000D+00  0.0000000000000D+00
377  3.7600000000000D+00  0.0000000000000D+00  0.0000000000000D+00
378  3.7700000000000D+00  0.0000000000000D+00  0.0000000000000D+00
379  3.7800000000000D+00  0.0000000000000D+00  0.0000000000000D+00
380  3.7900000000000D+00  0.0000000000000D+00  0.0000000000000D+00
381  3.8000000000000D+00  0.0000000000000D+00  0.0000000000000D+00
382  3.8100000000000D+00  0.0000000000000D+00  0.0000000000000D+00
383  3.8200000000000D+00  0.0000000000000D+00  0.0000000000000D+00
384  3.8300000000000D+00  0.0000000000000D+00  0.0000000000000D+00
385  3.8400000000000D+00  0.0000000000000D+00  0.0000000000000D+00
386  3.8500000000000D+00  0.0000000000000D+00  0.0000000000000D+00
387  3.8600000000000D+00  0.0000000000000D+00  0.0000000000000D+00
388  3.8700000000000D+00  0.0000000000000D+00  0.0000000000000D+00
389  3.8800000000000D+00  0.0000000000000D+00  0.0000000000000D+00
390  3.8900000000000D+00  0.0000000000000D+00  0.0000000000000D+00
391  3.9000000000000D+00  0.0000000000000D+00  0.0000000000000D+00
392  3.9100000000000D+00  0.0000000000000D+00  0.0000000000000D+00
393  3.9200000000000D+00  0.0000000000000D+00  0.0000000000000D+00
394  3.9300000000000D+00  0.0000000000000D+00  0.0000000000000D+00
395  3.9400000000000D+00  0.0000000000000D+00  0.0000000000000D+00
396  3.9500000000000D+00  0.0000000000000D+00  0.0000000000000D+00
397  3.9600000000000D+00  0.0000000000000D+00  0.0000000000000D+00
398  3.9700000000000D+00  0.0000000000000D+00  0.0000000000000D+00
399  3.9800000000000D+00  0.0000000000000D+00  0.0000000000000D+00
400  3.9900000000000D+00  0.0000000000000D+00  0.0000000000000D+00
401  4.0000000000000D+00  0.0000000000000D+00  0.0000000000000D+00
402  4.0100000000000D+00  0.0000000000000D+00  0.0000000000000D+00
403  4.0200000000000D+00  0.0000000000000D+00  0.0000000000000D+00
404  4.0300000000000D+00  0.0000000000000D+00  0.0000000000000D+00
405  4.0400000000000D+00  0.0000000000000D+00  0.0000000000000D+00
406  4.0500000000000D+00  0.0000000000000D+00  0.0000000000000D+00
407  4.0600000000000D+00  0.0000000000000D+00  0.0000000000000D+00
408  4.0700000000000D+00  0.0000000000000D+00  0.0000000000000D+00
409  4.0800000000000D+00  0.0000000000000D+00  0.0000000000000D+00
410  4.0900000000000D+00  0.0000000000000D+00  0.0000000000000D+00
411  4.1000000000000D+00  0.0000000000000D+00  0.0000000000000D+00
412  4.1100000000000D+00  0.0000000000000D+00  0.0000000000000D+00
413  4.1200000000000D+00  0.0000000000000D+00  0.0000000000000D+00
414  4.1300000000000D+00  0.0000000000000D+00  0.0000000000000D+00
415  4.1400000000000D+00  0.0000000000000D+00  0.0000000000000D+00
416  4.1500000000000D+00  0.0000000000000D+00  0.0000000000000D+00
417  4.1600000000000D+00  0.0000000000000D+00  0.0000000000000D+00
418  4.1700000000000D+00  0.0000000000000D+00  0.0000000000000D+00
419  4.1800000000000D+00  0.0000000000000D+00  0.0000000000000D+00
420  4.1900000000000D+00  0.0000000000000D+00  0.0000000000000D+00
421  4.2000000000000D+00  0.0000000000000D+00  0.0000000000000D+00
422  4.2100000000000D+00  0.0000000000000D+00  0.0000000000000D+00
423  4.2200000000000D+00  0.0000000000000D+00  0.0000000000000D+00
424  4.2300000000000D+00  0.0000000000000D+00  0.0000000000000D+00
425  4.2400000000000D+00  0.0000000000000D+00  0.0000000000000D+00
426  4.2500000000000D+00  0.0000000000000D+00  0.0000000000000D+00
427  4.2600000000000D+00  0.0000000000000D+00  0.0000000000000D+00
428  4.2700000000000D+00  0.0000000000000D+00  0.0000000000000D+00
429  4.2800000000000D+00  0.0000000000000D+00  0.0000000000000D+00
430  4.2900000000000D+00  0.0000000000000D+00  0.0000000000000D+00
431  4.3000000000000D+00  0.0000000000000D+00  0.0000000000000D+00
432  4.3100000000000D+00  0.0000000000000D+00  0.0000000000000D+00
433  4.3200000000000D+00  0.0000000000000D+00  0.0000000000000D+00
434  4.3300000000000D+00  0.0000000000000D+00  0.0000000000000D+00
435  4.3400000000000D+00  0.0000000000000D+00  0.0000000000000D+00
436  4.3500000000000D+00  0.0000000000000D+00  0.0000000000000D+00
437  4.3600000000000D+00  0.0000000000000D+00  0.0000000000000D+00
438  4.3700000000000D+00  0.0000000000000D+00  0.0000000000000D+00
439  4.3800000000000D+00  0.0000000000000D+00  0.0000000000000D+00
440  4.3900000000000D+00  0.0000000000000D+00  0.0000000000000D+00
441  4.4000000000000D+00  0.0000000000000D+00  0.0000000000000D+00
442  4.4100000000000D+00  0.0000000000000D+00  0.0000000000000D+00
443  4.4200000000000D+00  0.0000000000000D+00  0.0000000000000D+00