Hf    ONCVPSP-3.3.0  r_core=   1.55994   1.61677   1.40114   1.61677
72.0000     26.0000      180429    zatom,zion,pspd
8 -116133   3     4   600     0    pspcod,pspxc,lmax,lloc,mmax,r2well
5.99000000  3.00000000  0.00000000    rchrg fchrg qchrg
2     4     4     2    nproj
3     1           extension_switch
4     4     3    nprojso
0                         1.4526773119025D+00  1.3010372831598D+01
1  0.0000000000000D+00  7.0679206931601D-10 -1.4929690816956D-10
2  1.0000000000000D-02 -2.1903171957091D-02  4.9686240109144D-02
3  2.0000000000000D-02 -4.3698467886506D-02  9.9319449740368D-02
4  3.0000000000000D-02 -6.5278974609992D-02  1.4884671687295D-01
5  4.0000000000000D-02 -8.6539691110288D-02  1.9821536415705D-01
6  5.0000000000000D-02 -1.0737845094899D-01  2.4737306067890D-01
7  6.0000000000000D-02 -1.2769680479685D-01  2.9626792714918D-01
8  7.0000000000000D-02 -1.4740085062014D-01  3.4484863250003D-01
9  8.0000000000000D-02 -1.6640199977352D-01  3.9306448002524D-01
10  9.0000000000000D-02 -1.8461766811717D-01  4.4086548138122D-01
11  1.0000000000000D-01 -2.0197188229436D-01  4.8820241698031D-01
12  1.1000000000000D-01 -2.1839579246140D-01  5.3502688155026D-01
13  1.2000000000000D-01 -2.3382808404263D-01  5.8129131390134D-01
14  1.3000000000000D-01 -2.4821528247273D-01  6.2694901023137D-01
15  1.4000000000000D-01 -2.6151194636953D-01  6.7195412060530D-01
16  1.5000000000000D-01 -2.7368074613599D-01  7.1626162856588D-01
17  1.6000000000000D-01 -2.8469242659953D-01  7.5982731416053D-01
18  1.7000000000000D-01 -2.9452565394128D-01  8.0260770100230D-01
19  1.8000000000000D-01 -3.0316674882601D-01  8.4455998831523D-01
20  1.9000000000000D-01 -3.1060930929444D-01  8.8564196924115D-01
21  2.0000000000000D-01 -3.1685372860244D-01  9.2581193700188D-01
22  2.1000000000000D-01 -3.2190661476456D-01  9.6502858081205D-01
23  2.2000000000000D-01 -3.2578012006204D-01  1.0032508737197D+00
24  2.3000000000000D-01 -3.2849119018754D-01  1.0404379548094D+00
25  2.4000000000000D-01 -3.3006074400028D-01  1.0765490084298D+00
26  2.5000000000000D-01 -3.3051279603877D-01  1.1115431433067D+00
27  2.6000000000000D-01 -3.2987353496537D-01  1.1453792745561D+00
28  2.7000000000000D-01 -3.2817037198293D-01  1.1780160117380D+00
29  2.8000000000000D-01 -3.2543097395385D-01  1.2094115561613D+00
30  2.9000000000000D-01 -3.2168229645495D-01  1.2395236106849D+00
31  3.0000000000000D-01 -3.1694963230711D-01  1.2683093052433D+00
32  3.1000000000000D-01 -3.1125569121870D-01  1.2957251412579D+00
33  3.2000000000000D-01 -3.0461972607133D-01  1.3217269579825D+00
34  3.3000000000000D-01 -2.9705672105399D-01  1.3462699236668D+00
35  3.4000000000000D-01 -2.8857665631370D-01  1.3693085542074D+00
36  3.5000000000000D-01 -2.7918386304375D-01  1.3907967616969D+00
37  3.6000000000000D-01 -2.6887648197667D-01  1.4106879349711D+00
38  3.7000000000000D-01 -2.5764603709813D-01  1.4289350539059D+00
39  3.8000000000000D-01 -2.4547713505830D-01  1.4454908388233D+00
40  3.9000000000000D-01 -2.3234729924517D-01  1.4603079359364D+00
41  4.0000000000000D-01 -2.1822694581202D-01  1.4733391393032D+00
42  4.1000000000000D-01 -2.0307950713942D-01  1.4845376492715D+00
43  4.2000000000000D-01 -1.8686170627940D-01  1.4938573668846D+00
44  4.3000000000000D-01 -1.6952398389899D-01  1.5012532231921D+00
45  4.4000000000000D-01 -1.5101107713519D-01  1.5066815418742D+00
46  4.5000000000000D-01 -1.3126274762030D-01  1.5101004330441D+00
47  4.6000000000000D-01 -1.1021465376116D-01  1.5114702155625D+00
48  4.7000000000000D-01 -8.7799360186378D-02  1.5107538646662D+00
49  4.8000000000000D-01 -6.3947475140453D-02  1.5079174812093D+00
50  4.9000000000000D-01 -3.8588904531481D-02  1.5029307783309D+00
51  5.0000000000000D-01 -1.1654209357487D-02  1.4957675809126D+00
52  5.1000000000000D-01  1.6923948624763D-02  1.4864063327769D+00
53  5.2000000000000D-01  4.7209289840345D-02  1.4748306062135D+00
54  5.3000000000000D-01  7.9260346840374D-02  1.4610296081046D+00
55  5.4000000000000D-01  1.1312886099002D-01  1.4449986766671D+00
56  5.5000000000000D-01  1.4885816676552D-01  1.4267397626338D+00
57  5.6000000000000D-01  1.8648158541316D-01  1.4062618885743D+00
58  5.7000000000000D-01  2.2602085034905D-01  1.3835815800023D+00
59  5.8000000000000D-01  2.6748458703659D-01  1.3587232619378D+00
60  5.9000000000000D-01  3.1086687014864D-01  1.3317196146936D+00
61  6.0000000000000D-01  3.5614588059982D-01  1.3026118828348D+00
62  6.1000000000000D-01  4.0328268451812D-01  1.2714501315149D+00
63  6.2000000000000D-01  4.5222015540307D-01  1.2382934447354D+00
64  6.3000000000000D-01  5.0288205961064D-01  1.2032100604807D+00
65  6.4000000000000D-01  5.5517232389806D-01  1.1662774381798D+00
66  6.5000000000000D-01  6.0897450207962D-01  1.1275822544977D+00
67  6.6000000000000D-01  6.6415145590728D-01  1.0872203240908D+00
68  6.7000000000000D-01  7.2054526308779D-01  1.0452964426489D+00
69  6.8000000000000D-01  7.7797736293590D-01  1.0019241502863D+00
70  6.9000000000000D-01  8.3624894755103D-01  9.5722541413862D-01
71  7.0000000000000D-01  8.9514160361399D-01  9.1133022984666D-01
72  7.1000000000000D-01  9.5441820697230D-01  8.6437614247364D-01
73  7.2000000000000D-01  1.0138240691542D+00  8.1650768827884D-01
74  7.3000000000000D-01  1.0730883318404D+00  7.6787575966576D-01
75  7.4000000000000D-01  1.1319256022017D+00  7.1863689651089D-01
76  7.5000000000000D-01  1.1900378188606D+00  6.6895250796713D-01
77  7.6000000000000D-01  1.2471163351649D+00  6.1898802969325D-01
78  7.7000000000000D-01  1.3028442034578D+00  5.6891202229199D-01
79  7.8000000000000D-01  1.3568986411560D+00  5.1889521752697D-01
80  7.9000000000000D-01  1.4089536567383D+00  4.6910951962283D-01
81  8.0000000000000D-01  1.4586828112402D+00  4.1972696962485D-01
82  8.1000000000000D-01  1.5057620885794D+00  3.7091868139401D-01
83  8.2000000000000D-01  1.5498728460423D+00  3.2285375833169D-01
84  8.3000000000000D-01  1.5907048145604D+00  2.7569820035713D-01
85  8.4000000000000D-01  1.6279591170435D+00  2.2961381099492D-01
86  8.5000000000000D-01  1.6613512720174D+00  1.8475711465999D-01
87  8.6000000000000D-01  1.6906141491792D+00  1.4127829435196D-01
88  8.7000000000000D-01  1.7155008432230D+00  9.9320159984141D-02
89  8.8000000000000D-01  1.7357874324380D+00  5.9017157473137D-02
90  8.9000000000000D-01  1.7512755891279D+00  2.0494428501666D-02
91  9.0000000000000D-01  1.7617950098568D+00 -1.6133069461196D-02
92  9.1000000000000D-01  1.7672056348707D+00 -5.0761373733490D-02
93  9.2000000000000D-01  1.7673996277942D+00 -8.3298248988873D-02
94  9.3000000000000D-01  1.7623030888152D+00 -1.1366383387071D-01
95  9.4000000000000D-01  1.7518774770375D+00 -1.4179119445060D-01
96  9.5000000000000D-01  1.7361207204824D+00 -1.6762677816929D-01
97  9.6000000000000D-01  1.7150679953194D+00 -1.9113076281782D-01
98  9.7000000000000D-01  1.6887921592631D+00 -2.1227729610963D-01
99  9.8000000000000D-01  1.6574038276698D+00 -2.3105462244713D-01
100  9.9000000000000D-01  1.6210510846217D+00 -2.4746509458616D-01
101  1.0000000000000D+00  1.5799188252800D+00 -2.6152506906196D-01
102  1.0100000000000D+00  1.5342277296297D+00 -2.7326468535655D-01
103  1.0200000000000D+00  1.4842328719741D+00 -2.8272753001396D-01
104  1.0300000000000D+00  1.4302219744910D+00 -2.8997018805125D-01
105  1.0400000000000D+00  1.3725133171634D+00 -2.9506168516918D-01
106  1.0500000000000D+00  1.3114533202747D+00 -2.9808282538262D-01
107  1.0600000000000D+00  1.2474138195212D+00 -2.9912542980569D-01
108  1.0700000000000D+00  1.1807890569581D+00 -2.9829148323635D-01
109  1.0800000000000D+00  1.1119924147436D+00 -2.9569219626787D-01
110  1.0900000000000D+00  1.0414529212920D+00 -2.9144699141716D-01
111  1.1000000000000D+00  9.6961156221859D-01 -2.8568242256480D-01
112  1.1100000000000D+00  8.9691743070880D-01 -2.7853103765464D-01
113  1.1200000000000D+00  8.2382375371613D-01 -2.7013019512008D-01
114  1.1300000000000D+00  7.5078383207954D-01 -2.6062084500397D-01
115  1.1400000000000D+00  6.7824693341845D-01 -2.5014628597450D-01
116  1.1500000000000D+00  6.0665417717280D-01 -2.3885090960952D-01
117  1.1600000000000D+00  5.3643445140669D-01 -2.2687894341002D-01
118  1.1700000000000D+00  4.6800040041015D-01 -2.1437320387254D-01
119  1.1800000000000D+00  4.0174452114309D-01 -2.0147387069312D-01
120  1.1900000000000D+00  3.3803540522750D-01 -1.8831729282635D-01
121  1.2000000000000D+00  2.7721416173240D-01 -1.7503483673707D-01
122  1.2100000000000D+00  2.1959105315769D-01 -1.6175178641820D-01
123  1.2200000000000D+00  1.6544237394124D-01 -1.4858630391089D-01
124  1.2300000000000D+00  1.1500759980768D-01 -1.3564845879385D-01
125  1.2400000000000D+00  6.8486830369264D-02 -1.2303933349812D-01
126  1.2500000000000D+00  2.6038544337635D-02 -1.1085021046495D-01
127  1.2600000000000D+00 -1.2222317989916D-02 -9.9161846061126D-02
128  1.2700000000000D+00 -4.6225922689752D-02 -8.8043837291282D-02
129  1.2800000000000D+00 -7.5948819639292D-02 -7.7554069745020D-02
130  1.2900000000000D+00 -1.0141450866409D-01 -6.7738338176768D-02
131  1.3000000000000D+00 -1.2269455180852D-01 -5.8629870544649D-02
132  1.3100000000000D+00 -1.3990896432222D-01 -5.0249035847301D-02
133  1.3200000000000D+00 -1.5321925759584D-01 -4.2604568775086D-02
134  1.3300000000000D+00 -1.6282127819842D-01 -3.5694965670939D-02
135  1.3400000000000D+00 -1.6893660768118D-01 -2.9510287512604D-02
136  1.3500000000000D+00 -1.7181088297162D-01 -2.4032599483479D-02
137  1.3600000000000D+00 -1.7171119121240D-01 -1.9236632770840D-02
138  1.3700000000000D+00 -1.6892272086579D-01 -1.5090604924433D-02
139  1.3800000000000D+00 -1.6374552480884D-01 -1.1557041061926D-02
140  1.3900000000000D+00 -1.5649106531495D-01 -8.5936536230927D-03
141  1.4000000000000D+00 -1.4747865324243D-01 -6.1542564927412D-03
142  1.4100000000000D+00 -1.3703180565986D-01 -4.1897055113525D-03
143  1.4200000000000D+00 -1.2547456372495D-01 -2.6488541571543D-03
144  1.4300000000000D+00 -1.1312781314966D-01 -1.4795128142978D-03
145  1.4400000000000D+00 -1.0030564588800D-01 -6.2940096994401D-04
146  1.4500000000000D+00 -8.7311801630790D-02 -4.7081644889219D-05
147  1.4600000000000D+00 -7.4436232078809D-02  3.1713358014087D-04
148  1.4700000000000D+00 -6.1951822981716D-02  5.1031857638701D-04
149  1.4800000000000D+00 -5.0111315872622D-02  5.7611724669311D-04
150  1.4900000000000D+00 -3.9144454658960D-02  5.5398557745852D-04
151  1.5000000000000D+00 -2.9255399472391D-02  4.7850285376875D-04
152  1.5100000000000D+00 -2.0625038175126D-02  3.7889266405431D-04
153  1.5200000000000D+00 -1.3389815740078D-02  2.7792745910470D-04
154  1.5300000000000D+00 -7.6298173931619D-03  1.9052128578560D-04
155  1.5400000000000D+00 -3.5316489284896D-03  1.3130479257399D-04
156  1.5500000000000D+00 -1.2165442525723D-03  1.0876502601595D-04
157  1.5600000000000D+00 -2.5058490725467D-04  9.0231774981528D-05
158  1.5700000000000D+00  9.8466684088765D-06  4.0746685018176D-05
159  1.5800000000000D+00 -3.8653428212323D-06 -2.9509549010628D-06
160  1.5900000000000D+00 -1.6418224319866D-05 -7.9237983007577D-06
161  1.6000000000000D+00  7.1815993368453D-07  9.5349911410241D-07
162  1.6100000000000D+00  1.8042632792303D-06  1.7428309537537D-06
163  1.6200000000000D+00  4.0309380293727D-07 -1.4359388945869D-07
164  1.6300000000000D+00  5.8104677863567D-07 -2.0698598265159D-07
165  1.6400000000000D+00  0.0000000000000D+00  0.0000000000000D+00
166  1.6500000000000D+00  0.0000000000000D+00  0.0000000000000D+00
167  1.6600000000000D+00  0.0000000000000D+00  0.0000000000000D+00
168  1.6700000000000D+00  0.0000000000000D+00  0.0000000000000D+00
169  1.6800000000000D+00  0.0000000000000D+00  0.0000000000000D+00
170  1.6900000000000D+00  0.0000000000000D+00  0.0000000000000D+00
171  1.7000000000000D+00  0.0000000000000D+00  0.0000000000000D+00
172  1.7100000000000D+00  0.0000000000000D+00  0.0000000000000D+00
173  1.7200000000000D+00  0.0000000000000D+00  0.0000000000000D+00
174  1.7300000000000D+00  0.0000000000000D+00  0.0000000000000D+00
175  1.7400000000000D+00  0.0000000000000D+00  0.0000000000000D+00
176  1.7500000000000D+00  0.0000000000000D+00  0.0000000000000D+00
177  1.7600000000000D+00  0.0000000000000D+00  0.0000000000000D+00
178  1.7700000000000D+00  0.0000000000000D+00  0.0000000000000D+00
179  1.7800000000000D+00  0.0000000000000D+00  0.0000000000000D+00
180  1.7900000000000D+00  0.0000000000000D+00  0.0000000000000D+00
181  1.8000000000000D+00  0.0000000000000D+00  0.0000000000000D+00
182  1.8100000000000D+00  0.0000000000000D+00  0.0000000000000D+00
183  1.8200000000000D+00  0.0000000000000D+00  0.0000000000000D+00
184  1.8300000000000D+00  0.0000000000000D+00  0.0000000000000D+00
185  1.8400000000000D+00  0.0000000000000D+00  0.0000000000000D+00
186  1.8500000000000D+00  0.0000000000000D+00  0.0000000000000D+00
187  1.8600000000000D+00  0.0000000000000D+00  0.0000000000000D+00
188  1.8700000000000D+00  0.0000000000000D+00  0.0000000000000D+00
189  1.8800000000000D+00  0.0000000000000D+00  0.0000000000000D+00
190  1.8900000000000D+00  0.0000000000000D+00  0.0000000000000D+00
191  1.9000000000000D+00  0.0000000000000D+00  0.0000000000000D+00
192  1.9100000000000D+00  0.0000000000000D+00  0.0000000000000D+00
193  1.9200000000000D+00  0.0000000000000D+00  0.0000000000000D+00
194  1.9300000000000D+00  0.0000000000000D+00  0.0000000000000D+00
195  1.9400000000000D+00  0.0000000000000D+00  0.0000000000000D+00
196  1.9500000000000D+00  0.0000000000000D+00  0.0000000000000D+00
197  1.9600000000000D+00  0.0000000000000D+00  0.0000000000000D+00
198  1.9700000000000D+00  0.0000000000000D+00  0.0000000000000D+00
199  1.9800000000000D+00  0.0000000000000D+00  0.0000000000000D+00
200  1.9900000000000D+00  0.0000000000000D+00  0.0000000000000D+00
201  2.0000000000000D+00  0.0000000000000D+00  0.0000000000000D+00
202  2.0100000000000D+00  0.0000000000000D+00  0.0000000000000D+00
203  2.0200000000000D+00  0.0000000000000D+00  0.0000000000000D+00
204  2.0300000000000D+00  0.0000000000000D+00  0.0000000000000D+00
205  2.0400000000000D+00  0.0000000000000D+00  0.0000000000000D+00
206  2.0500000000000D+00  0.0000000000000D+00  0.0000000000000D+00
207  2.0600000000000D+00  0.0000000000000D+00  0.0000000000000D+00
208  2.0700000000000D+00  0.0000000000000D+00  0.0000000000000D+00
209  2.0800000000000D+00  0.0000000000000D+00  0.0000000000000D+00
210  2.0900000000000D+00  0.0000000000000D+00  0.0000000000000D+00
211  2.1000000000000D+00  0.0000000000000D+00  0.0000000000000D+00
212  2.1100000000000D+00  0.0000000000000D+00  0.0000000000000D+00
213  2.1200000000000D+00  0.0000000000000D+00  0.0000000000000D+00
214  2.1300000000000D+00  0.0000000000000D+00  0.0000000000000D+00
215  2.1400000000000D+00  0.0000000000000D+00  0.0000000000000D+00
216  2.1500000000000D+00  0.0000000000000D+00  0.0000000000000D+00
217  2.1600000000000D+00  0.0000000000000D+00  0.0000000000000D+00
218  2.1700000000000D+00  0.0000000000000D+00  0.0000000000000D+00
219  2.1800000000000D+00  0.0000000000000D+00  0.0000000000000D+00
220  2.1900000000000D+00  0.0000000000000D+00  0.0000000000000D+00
221  2.2000000000000D+00  0.0000000000000D+00  0.0000000000000D+00
222  2.2100000000000D+00  0.0000000000000D+00  0.0000000000000D+00
223  2.2200000000000D+00  0.0000000000000D+00  0.0000000000000D+00
224  2.2300000000000D+00  0.0000000000000D+00  0.0000000000000D+00
225  2.2400000000000D+00  0.0000000000000D+00  0.0000000000000D+00
226  2.2500000000000D+00  0.0000000000000D+00  0.0000000000000D+00
227  2.2600000000000D+00  0.0000000000000D+00  0.0000000000000D+00
228  2.2700000000000D+00  0.0000000000000D+00  0.0000000000000D+00
229  2.2800000000000D+00  0.0000000000000D+00  0.0000000000000D+00
230  2.2900000000000D+00  0.0000000000000D+00  0.0000000000000D+00
231  2.3000000000000D+00  0.0000000000000D+00  0.0000000000000D+00
232  2.3100000000000D+00  0.0000000000000D+00  0.0000000000000D+00
233  2.3200000000000D+00  0.0000000000000D+00  0.0000000000000D+00
234  2.3300000000000D+00  0.0000000000000D+00  0.0000000000000D+00
235  2.3400000000000D+00  0.0000000000000D+00  0.0000000000000D+00
236  2.3500000000000D+00  0.0000000000000D+00  0.0000000000000D+00
237  2.3600000000000D+00  0.0000000000000D+00  0.0000000000000D+00
238  2.3700000000000D+00  0.0000000000000D+00  0.0000000000000D+00
239  2.3800000000000D+00  0.0000000000000D+00  0.0000000000000D+00
240  2.3900000000000D+00  0.0000000000000D+00  0.0000000000000D+00
241  2.4000000000000D+00  0.0000000000000D+00  0.0000000000000D+00
242  2.4100000000000D+00  0.0000000000000D+00  0.0000000000000D+00
243  2.4200000000000D+00  0.0000000000000D+00  0.0000000000000D+00
244  2.4300000000000D+00  0.0000000000000D+00  0.0000000000000D+00
245  2.4400000000000D+00  0.0000000000000D+00  0.0000000000000D+00
246  2.4500000000000D+00  0.0000000000000D+00  0.0000000000000D+00
247  2.4600000000000D+00  0.0000000000000D+00  0.0000000000000D+00
248  2.4700000000000D+00  0.0000000000000D+00  0.0000000000000D+00
249  2.4800000000000D+00  0.0000000000000D+00  0.0000000000000D+00
250  2.4900000000000D+00  0.0000000000000D+00  0.0000000000000D+00
251  2.5000000000000D+00  0.0000000000000D+00  0.0000000000000D+00
252  2.5100000000000D+00  0.0000000000000D+00  0.0000000000000D+00
253  2.5200000000000D+00  0.0000000000000D+00  0.0000000000000D+00
254  2.5300000000000D+00  0.0000000000000D+00  0.0000000000000D+00
255  2.5400000000000D+00  0.0000000000000D+00  0.0000000000000D+00
256  2.5500000000000D+00  0.0000000000000D+00  0.0000000000000D+00
257  2.5600000000000D+00  0.0000000000000D+00  0.0000000000000D+00
258  2.5700000000000D+00  0.0000000000000D+00  0.0000000000000D+00
259  2.5800000000000D+00  0.0000000000000D+00  0.0000000000000D+00
260  2.5900000000000D+00  0.0000000000000D+00  0.0000000000000D+00
261  2.6000000000000D+00  0.0000000000000D+00  0.0000000000000D+00
262  2.6100000000000D+00  0.0000000000000D+00  0.0000000000000D+00
263  2.6200000000000D+00  0.0000000000000D+00  0.0000000000000D+00
264  2.6300000000000D+00  0.0000000000000D+00  0.0000000000000D+00
265  2.6400000000000D+00  0.0000000000000D+00  0.0000000000000D+00
266  2.6500000000000D+00  0.0000000000000D+00  0.0000000000000D+00
267  2.6600000000000D+00  0.0000000000000D+00  0.0000000000000D+00
268  2.6700000000000D+00  0.0000000000000D+00  0.0000000000000D+00
269  2.6800000000000D+00  0.0000000000000D+00  0.0000000000000D+00
270  2.6900000000000D+00  0.0000000000000D+00  0.0000000000000D+00
271  2.7000000000000D+00  0.0000000000000D+00  0.0000000000000D+00
272  2.7100000000000D+00  0.0000000000000D+00  0.0000000000000D+00
273  2.7200000000000D+00  0.0000000000000D+00  0.0000000000000D+00
274  2.7300000000000D+00  0.0000000000000D+00  0.0000000000000D+00
275  2.7400000000000D+00  0.0000000000000D+00  0.0000000000000D+00
276  2.7500000000000D+00  0.0000000000000D+00  0.0000000000000D+00
277  2.7600000000000D+00  0.0000000000000D+00  0.0000000000000D+00
278  2.7700000000000D+00  0.0000000000000D+00  0.0000000000000D+00
279  2.7800000000000D+00  0.0000000000000D+00  0.0000000000000D+00
280  2.7900000000000D+00  0.0000000000000D+00  0.0000000000000D+00
281  2.8000000000000D+00  0.0000000000000D+00  0.0000000000000D+00
282  2.8100000000000D+00  0.0000000000000D+00  0.0000000000000D+00
283  2.8200000000000D+00  0.0000000000000D+00  0.0000000000000D+00
284  2.8300000000000D+00  0.0000000000000D+00  0.0000000000000D+00
285  2.8400000000000D+00  0.0000000000000D+00  0.0000000000000D+00
286  2.8500000000000D+00  0.0000000000000D+00  0.0000000000000D+00
287  2.8600000000000D+00  0.0000000000000D+00  0.0000000000000D+00
288  2.8700000000000D+00  0.0000000000000D+00  0.0000000000000D+00
289  2.8800000000000D+00  0.0000000000000D+00  0.0000000000000D+00
290  2.8900000000000D+00  0.0000000000000D+00  0.0000000000000D+00
291  2.9000000000000D+00  0.0000000000000D+00  0.0000000000000D+00
292  2.9100000000000D+00  0.0000000000000D+00  0.0000000000000D+00
293  2.9200000000000D+00  0.0000000000000D+00  0.0000000000000D+00
294  2.9300000000000D+00  0.0000000000000D+00  0.0000000000000D+00
295  2.9400000000000D+00  0.0000000000000D+00  0.0000000000000D+00
296  2.9500000000000D+00  0.0000000000000D+00  0.0000000000000D+00
297  2.9600000000000D+00  0.0000000000000D+00  0.0000000000000D+00
298  2.9700000000000D+00  0.0000000000000D+00  0.0000000000000D+00
299  2.9800000000000D+00  0.0000000000000D+00  0.0000000000000D+00
300  2.9900000000000D+00  0.0000000000000D+00  0.0000000000000D+00
301  3.0000000000000D+00  0.0000000000000D+00  0.0000000000000D+00
302  3.0100000000000D+00  0.0000000000000D+00  0.0000000000000D+00
303  3.0200000000000D+00  0.0000000000000D+00  0.0000000000000D+00
304  3.0300000000000D+00  0.0000000000000D+00  0.0000000000000D+00
305  3.0400000000000D+00  0.0000000000000D+00  0.0000000000000D+00
306  3.0500000000000D+00  0.0000000000000D+00  0.0000000000000D+00
307  3.0600000000000D+00  0.0000000000000D+00  0.0000000000000D+00
308  3.0700000000000D+00  0.0000000000000D+00  0.0000000000000D+00
309  3.0800000000000D+00  0.0000000000000D+00  0.0000000000000D+00
310  3.0900000000000D+00  0.0000000000000D+00  0.0000000000000D+00
311  3.1000000000000D+00  0.0000000000000D+00  0.0000000000000D+00
312  3.1100000000000D+00  0.0000000000000D+00  0.0000000000000D+00
313  3.1200000000000D+00  0.0000000000000D+00  0.0000000000000D+00
314  3.1300000000000D+00  0.0000000000000D+00  0.0000000000000D+00
315  3.1400000000000D+00  0.0000000000000D+00  0.0000000000000D+00
316  3.1500000000000D+00  0.0000000000000D+00  0.0000000000000D+00
317  3.1600000000000D+00  0.0000000000000D+00  0.0000000000000D+00
318  3.1700000000000D+00  0.0000000000000D+00  0.0000000000000D+00
319  3.1800000000000D+00  0.0000000000000D+00  0.0000000000000D+00
320  3.1900000000000D+00  0.0000000000000D+00  0.0000000000000D+00
321  3.2000000000000D+00  0.0000000000000D+00  0.0000000000000D+00
322  3.2100000000000D+00  0.0000000000000D+00  0.0000000000000D+00
323  3.2200000000000D+00  0.0000000000000D+00  0.0000000000000D+00
324  3.2300000000000D+00  0.0000000000000D+00  0.0000000000000D+00
325  3.2400000000000D+00  0.0000000000000D+00  0.0000000000000D+00
326  3.2500000000000D+00  0.0000000000000D+00  0.0000000000000D+00
327  3.2600000000000D+00  0.0000000000000D+00  0.0000000000000D+00
328  3.2700000000000D+00  0.0000000000000D+00  0.0000000000000D+00
329  3.2800000000000D+00  0.0000000000000D+00  0.0000000000000D+00
330  3.2900000000000D+00  0.0000000000000D+00  0.0000000000000D+00
331  3.3000000000000D+00  0.0000000000000D+00  0.0000000000000D+00
332  3.3100000000000D+00  0.0000000000000D+00  0.0000000000000D+00
333  3.3200000000000D+00  0.0000000000000D+00  0.0000000000000D+00
334  3.3300000000000D+00  0.0000000000000D+00  0.0000000000000D+00
335  3.3400000000000D+00  0.0000000000000D+00  0.0000000000000D+00
336  3.3500000000000D+00  0.0000000000000D+00  0.0000000000000D+00
337  3.3600000000000D+00  0.0000000000000D+00  0.0000000000000D+00
338  3.3700000000000D+00  0.0000000000000D+00  0.0000000000000D+00
339  3.3800000000000D+00  0.0000000000000D+00  0.0000000000000D+00
340  3.3900000000000D+00  0.0000000000000D+00  0.0000000000000D+00
341  3.4000000000000D+00  0.0000000000000D+00  0.0000000000000D+00
342  3.4100000000000D+00  0.0000000000000D+00  0.0000000000000D+00
343  3.4200000000000D+00  0.0000000000000D+00  0.0000000000000D+00
344  3.4300000000000D+00  0.0000000000000D+00  0.0000000000000D+00
345  3.4400000000000D+00  0.0000000000000D+00  0.0000000000000D+00
346  3.4500000000000D+00  0.0000000000000D+00  0.0000000000000D+00
347  3.4600000000000D+00  0.0000000000000D+00  0.0000000000000D+00
348  3.4700000000000D+00  0.0000000000000D+00  0.0000000000000D+00
349  3.4800000000000D+00  0.0000000000000D+00  0.0000000000000D+00
350  3.4900000000000D+00  0.0000000000000D+00  0.0000000000000D+00
351  3.5000000000000D+00  0.0000000000000D+00  0.0000000000000D+00
352  3.5100000000000D+00  0.0000000000000D+00  0.0000000000000D+00
353  3.5200000000000D+00  0.0000000000000D+00  0.0000000000000D+00
354  3.5300000000000D+00  0.0000000000000D+00  0.0000000000000D+00
355  3.5400000000000D+00  0.0000000000000D+00  0.0000000000000D+00
356  3.5500000000000D+00  0.0000000000000D+00  0.0000000000000D+00
357  3.5600000000000D+00  0.0000000000000D+00  0.0000000000000D+00
358  3.5700000000000D+00  0.0000000000000D+00  0.0000000000000D+00
359  3.5800000000000D+00  0.0000000000000D+00  0.0000000000000D+00
360  3.5900000000000D+00  0.0000000000000D+00  0.0000000000000D+00
361  3.6000000000000D+00  0.0000000000000D+00  0.0000000000000D+00
362  3.6100000000000D+00  0.0000000000000D+00  0.0000000000000D+00
363  3.6200000000000D+00  0.0000000000000D+00  0.0000000000000D+00
364  3.6300000000000D+00  0.0000000000000D+00  0.0000000000000D+00
365  3.6400000000000D+00  0.0000000000000D+00  0.0000000000000D+00
366  3.6500000000000D+00  0.0000000000000D+00  0.0000000000000D+00
367  3.6600000000000D+00  0.0000000000000D+00  0.0000000000000D+00
368  3.6700000000000D+00  0.0000000000000D+00  0.0000000000000D+00
369  3.6800000000000D+00  0.0000000000000D+00  0.0000000000000D+00
370  3.6900000000000D+00  0.0000000000000D+00  0.0000000000000D+00
371  3.7000000000000D+00  0.0000000000000D+00  0.0000000000000D+00
372  3.7100000000000D+00  0.0000000000000D+00  0.0000000000000D+00
373  3.7200000000000D+00  0.0000000000000D+00  0.0000000000000D+00
374  3.7300000000000D+00  0.0000000000000D+00  0.0000000000000D+00
375  3.7400000000000D+00  0.0000000000000D+00  0.0000000000000D+00
376  3.7500000000000D+00  0.0000000000000D+00  0.0000000000000D+00
377  3.7600000000000D+00  0.0000000000000D+00  0.0000000000000D+00
378  3.7700000000000D+00  0.0000000000000D+00  0.0000000000000D+00
379  3.7800000000000D+00  0.0000000000000D+00  0.0000000000000D+00
380  3.7900000000000D+00  0.0000000000000D+00  0.0000000000000D+00
381  3.8000000000000D+00  0.0000000000000D+00  0.0000000000000D+00
382  3.8100000000000D+00  0.0000000000000D+00  0.0000000000000D+00
383  3.8200000000000D+00  0.0000000000000D+00  0.0000000000000D+00
384  3.8300000000000D+00  0.0000000000000D+00  0.0000000000000D+00
385  3.8400000000000D+00  0.0000000000000D+00  0.0000000000000D+00
386  3.8500000000000D+00  0.0000000000000D+00  0.0000000000000D+00
387  3.8600000000000D+00  0.0000000000000D+00  0.0000000000000D+00
388  3.8700000000000D+00  0.0000000000000D+00  0.0000000000000D+00
389  3.8800000000000D+00  0.0000000000000D+00  0.0000000000000D+00
390  3.8900000000000D+00  0.0000000000000D+00  0.0000000000000D+00
391  3.9000000000000D+00  0.0000000000000D+00  0.0000000000000D+00
392  3.9100000000000D+00  0.0000000000000D+00  0.0000000000000D+00
393  3.9200000000000D+00  0.0000000000000D+00  0.0000000000000D+00
394  3.9300000000000D+00  0.0000000000000D+00  0.0000000000000D+00
395  3.9400000000000D+00  0.0000000000000D+00  0.0000000000000D+00
396  3.9500000000000D+00  0.0000000000000D+00  0.0000000000000D+00
397  3.9600000000000D+00  0.0000000000000D+00  0.0000000000000D+00
398  3.9700000000000D+00  0.0000000000000D+00  0.0000000000000D+00
399  3.9800000000000D+00  0.0000000000000D+00  0.0000000000000D+00
400  3.9900000000000D+00  0.0000000000000D+00  0.0000000000000D+00
401  4.0000000000000D+00  0.0000000000000D+00  0.0000000000000D+00
402  4.0100000000000D+00  0.0000000000000D+00  0.0000000000000D+00
403  4.0200000000000D+00  0.0000000000000D+00  0.0000000000000D+00
404  4.0300000000000D+00  0.0000000000000D+00  0.0000000000000D+00
405  4.0400000000000D+00  0.0000000000000D+00  0.0000000000000D+00
406  4.0500000000000D+00  0.0000000000000D+00  0.0000000000000D+00
407  4.0600000000000D+00  0.0000000000000D+00  0.0000000000000D+00
408  4.0700000000000D+00  0.0000000000000D+00  0.0000000000000D+00
409  4.0800000000000D+00  0.0000000000000D+00  0.0000000000000D+00
410  4.0900000000000D+00  0.0000000000000D+00  0.0000000000000D+00
411  4.1000000000000D+00  0.0000000000000D+00  0.0000000000000D+00
412  4.1100000000000D+00  0.0000000000000D+00  0.0000000000000D+00
413  4.1200000000000D+00  0.0000000000000D+00  0.0000000000000D+00
414  4.1300000000000D+00  0.0000000000000D+00  0.0000000000000D+00
415  4.1400000000000D+00  0.0000000000000D+00  0.0000000000000D+00
416  4.1500000000000D+00  0.0000000000000D+00  0.0000000000000D+00
417  4.1600000000000D+00  0.0000000000000D+00  0.0000000000000D+00
418  4.1700000000000D+00  0.0000000000000D+00  0.0000000000000D+00
419  4.1800000000000D+00  0.0000000000000D+00  0.0000000000000D+00
420  4.1900000000000D+00  0.0000000000000D+00  0.0000000000000D+00
421  4.2000000000000D+00  0.0000000000000D+00  0.0000000000000D+00
422  4.2100000000000D+00  0.0000000000000D+00  0.0000000000000D+00
423  4.2200000000000D+00  0.0000000000000D+00  0.0000000000000D+00
424  4.2300000000000D+00  0.0000000000000D+00  0.0000000000000D+00
425  4.2400000000000D+00  0.0000000000000D+00  0.0000000000000D+00
426  4.2500000000000D+00  0.0000000000000D+00  0.0000000000000D+00
427  4.2600000000000D+00  0.0000000000000D+00  0.0000000000000D+00
428  4.2700000000000D+00  0.0000000000000D+00  0.0000000000000D+00
429  4.2800000000000D+00  0.0000000000000D+00  0.0000000000000D+00
430  4.2900000000000D+00  0.0000000000000D+00  0.0000000000000D+00
431  4.3000000000000D+00  0.0000000000000D+00  0.0000000000000D+00
432  4.3100000000000D+00  0.0000000000000D+00  0.0000000000000D+00
433  4.3200000000000D+00  0.0000000000000D+00  0.0000000000000D+00
434  4.3300000000000D+00  0.0000000000000D+00  0.0000000000000D+00
435  4.3400000000000D+00  0.0000000000000D+00  0.0000000000000D+00
436  4.3500000000000D+00  0.0000000000000D+00  0.0000000000000D+00
437  4.3600000000000D+00  0.0000000000000D+00  0.0000000000000D+00
438  4.3700000000000D+00  0.0000000000000D+00  0.0000000000000D+00
439  4.3800000000000D+00  0.0000000000000D+00  0.0000000000000D+00
440  4.3900000000000D+00  0.0000000000000D+00  0.0000000000000D+00
441  4.4000000000000D+00  0.0000000000000D+00  0.0000000000000D+00
442  4.4100000000000D+00  0.0000000000000D+00  0.0000000000000D+00
443  4.4200000000000D+00  0.0000000000000D+00  0.0000000000000D+00