Hg    ONCVPSP-3.3.0  r_core=   1.40394   1.45509   1.40394   1.60079
80.0000     20.0000      180430    zatom,zion,pspd
8 -116133   3     4   600     0    pspcod,pspxc,lmax,lloc,mmax,r2well
5.99000000  5.00000000  0.00000000    rchrg fchrg qchrg
2     4     4     2    nproj
3     1           extension_switch
4     4     2    nprojso
0                        -8.7801458702243D-01  1.0292462587393D+01
1  0.0000000000000D+00  4.4946272259594D-09  2.2370494345836D-10
2  1.0000000000000D-02 -6.9923036648034D-02  7.0013340941562D-02
3  2.0000000000000D-02 -1.3934310883575D-01  1.3989835811711D-01
4  3.0000000000000D-02 -2.0776251374529D-01  2.0952682442545D-01
5  4.0000000000000D-02 -2.7469399682529D-01  2.7877070922059D-01
6  5.0000000000000D-02 -3.3966578954608D-01  3.4750228429519D-01
7  6.0000000000000D-02 -4.0222642675436D-01  4.1559423900926D-01
8  7.0000000000000D-02 -4.6194927552840D-01  4.8291980734570D-01
9  8.0000000000000D-02 -5.1843671192944D-01  5.4935290945027D-01
10  9.0000000000000D-02 -5.7132388753255D-01  6.1476830994062D-01
11  1.0000000000000D-01 -6.2028203401451D-01  6.7904179494996D-01
12  1.1000000000000D-01 -6.6502126128084D-01  7.4205036951147D-01
13  1.2000000000000D-01 -7.0529281251552D-01  8.0367247649465D-01
14  1.3000000000000D-01 -7.4089074801356D-01  8.6378823788045D-01
15  1.4000000000000D-01 -7.7165303857713D-01  9.2227971871482D-01
16  1.5000000000000D-01 -7.9746205848067D-01  9.7903121361649D-01
17  1.6000000000000D-01 -8.1824447739550D-01  1.0339295552425D+00
18  1.7000000000000D-01 -8.3397056006349D-01  1.0868644436401D+00
19  1.8000000000000D-01 -8.4465289177353D-01  1.1377287949438D+00
20  1.9000000000000D-01 -8.5034455667762D-01  1.1864191074212D+00
21  2.0000000000000D-01 -8.5113680454388D-01  1.2328358424326D+00
22  2.1000000000000D-01 -8.4715624954244D-01  1.2768838174597D+00
23  2.2000000000000D-01 -8.3856165197087D-01  1.3184726079824D+00
24  2.3000000000000D-01 -8.2554034032785D-01  1.3575169546442D+00
25  2.4000000000000D-01 -8.0830433673084D-01  1.3939371718535D+00
26  2.5000000000000D-01 -7.8708625325287D-01  1.4276595537259D+00
27  2.6000000000000D-01 -7.6213503024591D-01  1.4586167730850D+00
28  2.7000000000000D-01 -7.3371159006328D-01  1.4867482691042D+00
29  2.8000000000000D-01 -7.0208448074669D-01  1.5120006191061D+00
30  2.9000000000000D-01 -6.6752558417767D-01  1.5343278900263D+00
31  3.0000000000000D-01 -6.3030596190464D-01  1.5536919651007D+00
32  3.1000000000000D-01 -5.9069190935480D-01  1.5700628414590D+00
33  3.2000000000000D-01 -5.4894128545835D-01  1.5834188944837D+00
34  3.3000000000000D-01 -5.0530017990106D-01  1.5937471050392D+00
35  3.4000000000000D-01 -4.5999997434845D-01  1.6010432459735D+00
36  3.5000000000000D-01 -4.1325484713792D-01  1.6053120246502D+00
37  3.6000000000000D-01 -3.6525976321648D-01  1.6065671786767D+00
38  3.7000000000000D-01 -3.1618898262781D-01  1.6048315224391D+00
39  3.8000000000000D-01 -2.6619511175648D-01  1.6001369425518D+00
40  3.9000000000000D-01 -2.1540871195772D-01  1.5925243408467D+00
41  4.0000000000000D-01 -1.6393847029392D-01  1.5820435240805D+00
42  4.1000000000000D-01 -1.1187192701776D-01  1.5687530401044D+00
43  4.2000000000000D-01 -5.9276744353925D-02  1.5527199608233D+00
44  4.3000000000000D-01 -6.2024911987598D-03  1.5340196128493D+00
45  4.4000000000000D-01  4.7317091253716D-02  1.5127352573392D+00
46  4.5000000000000D-01  1.0126138707896D-01  1.4889577210636D+00
47  4.6000000000000D-01  1.5561981899052D-01  1.4627849813073D+00
48  4.7000000000000D-01  2.1038843782001D-01  1.4343217077106D+00
49  4.8000000000000D-01  2.6556625519475D-01  1.4036787646471D+00
50  4.9000000000000D-01  3.2115139222789D-01  1.3709726781682D+00
51  5.0000000000000D-01  3.7713712160349D-01  1.3363250719375D+00
52  5.1000000000000D-01  4.3350788375619D-01  1.2998620769108D+00
53  5.2000000000000D-01  4.9023535983890D-01  1.2617137197971D+00
54  5.3000000000000D-01  5.4727468478173D-01  1.2220132955448D+00
55  5.4000000000000D-01  6.0456088295043D-01  1.1808967292493D+00
56  5.5000000000000D-01  6.6200560669050D-01  1.1385019329525D+00
57  5.6000000000000D-01  7.1949425441234D-01  1.0949681628156D+00
58  5.7000000000000D-01  7.7688353987869D-01  1.0504353820845D+00
59  5.8000000000000D-01  8.3399957801893D-01  1.0050436351369D+00
60  5.9000000000000D-01  8.9063654506874D-01  9.5893243770436D-01
61  6.0000000000000D-01  9.4655596210851D-01  9.1224018809651D-01
62  6.1000000000000D-01  1.0014866414118D+00  8.6510360393708D-01
63  6.2000000000000D-01  1.0551253244079D+00  8.1765718853891D-01
64  6.3000000000000D-01  1.1071380287812D+00  7.7003273061759D-01
65  6.4000000000000D-01  1.1571621104104D+00  7.2235884057068D-01
66  6.5000000000000D-01  1.2048090336037D+00  6.7476052603711D-01
67  6.6000000000000D-01  1.2496678307490D+00  6.2735880891294D-01
68  6.7000000000000D-01  1.2913092201334D+00  5.8027038543732D-01
69  6.8000000000000D-01  1.3292903385422D+00  5.3360733038632D-01
70  6.9000000000000D-01  1.3631600335511D+00  4.8747684583226D-01
71  7.0000000000000D-01  1.3924646493778D+00  4.4198105435161D-01
72  7.1000000000000D-01  1.4167542298389D+00  3.9721683599730D-01
73  7.2000000000000D-01  1.4355890527287D+00  3.5327570780988D-01
74  7.3000000000000D-01  1.4485464018220D+00  3.1024374412661D-01
75  7.4000000000000D-01  1.4552274759164D+00  2.6820153546887D-01
76  7.5000000000000D-01  1.4552643290164D+00  2.2722418335489D-01
77  7.6000000000000D-01  1.4483267319831D+00  1.8738132799750D-01
78  7.7000000000000D-01  1.4341288438985D+00  1.4873720551923D-01
79  7.8000000000000D-01  1.4124355810248D+00  1.1135073104678D-01
80  7.9000000000000D-01  1.3830685726499D+00  7.5275603842427D-02
81  8.0000000000000D-01  1.3459115963072D+00  4.0560430491338D-02
82  8.1000000000000D-01  1.3009153898310D+00  7.2488620945166D-03
83  8.2000000000000D-01  1.2481017444070D+00 -2.4620258583196D-02
84  8.3000000000000D-01  1.1875667911437D+00 -5.5012743992049D-02
85  8.4000000000000D-01  1.1194834036167D+00 -8.3898906549302D-02
86  8.5000000000000D-01  1.0441026502015D+00 -1.1125340490970D-01
87  8.6000000000000D-01  9.6175424267346D-01 -1.3705509513865D-01
88  8.7000000000000D-01  8.7284594132494D-01 -1.6128688985472D-01
89  8.8000000000000D-01  7.7786189155747D-01 -1.8393562803959D-01
90  8.9000000000000D-01  6.7735988232540D-01 -2.0499195780164D-01
91  9.0000000000000D-01  5.7196753272000D-01 -2.2445023392975D-01
92  9.1000000000000D-01  4.6237742914954D-01 -2.4230843159574D-01
93  9.2000000000000D-01  3.4934125174628D-01 -2.5856807706465D-01
94  9.3000000000000D-01  2.3366294456878D-01 -2.7323419576097D-01
95  9.4000000000000D-01  1.1619099961375D-01 -2.8631527752438D-01
96  9.5000000000000D-01 -2.1900606377733D-03 -2.9782325838038D-01
97  9.6000000000000D-01 -1.2056890367882D-01 -3.0777351765725D-01
98  9.7000000000000D-01 -2.3801719944719D-01 -3.1618488881076D-01
99  9.8000000000000D-01 -3.5359990271113D-01 -3.2307968188049D-01
100  9.9000000000000D-01 -4.6638587368575D-01 -3.2848371509844D-01
101  1.0000000000000D+00 -5.7545869772317D-01 -3.3242635283232D-01
102  1.0100000000000D+00 -6.7992755876251D-01 -3.3494054672996D-01
103  1.0200000000000D+00 -7.7893801778099D-01 -3.3606287670609D-01
104  1.0300000000000D+00 -8.7168254577815D-01 -3.3583358823321D-01
105  1.0400000000000D+00 -9.5741066139571D-01 -3.3429662228998D-01
106  1.0500000000000D+00 -1.0354385264358D+00 -3.3149963428995D-01
107  1.0600000000000D+00 -1.1051578569749D+00 -3.2749399833728D-01
108  1.0700000000000D+00 -1.1660440155798D+00 -3.2233479326823D-01
109  1.0800000000000D+00 -1.2176631592731D+00 -3.1608076711364D-01
110  1.0900000000000D+00 -1.2596783290066D+00 -3.0879427685422D-01
111  1.1000000000000D+00 -1.2918543809691D+00 -3.0054120068665D-01
112  1.1100000000000D+00 -1.3140616717413D+00 -2.9139082030369D-01
113  1.1200000000000D+00 -1.3262784295356D+00 -2.8141567121566D-01
114  1.1300000000000D+00 -1.3285917586224D+00 -2.7069135954231D-01
115  1.1400000000000D+00 -1.3211972453123D+00 -2.5929634429039D-01
116  1.1500000000000D+00 -1.3043971489736D+00 -2.4731168455511D-01
117  1.1600000000000D+00 -1.2785971860136D+00 -2.3482075178367D-01
118  1.1700000000000D+00 -1.2443019322654D+00 -2.2190890775223D-01
119  1.1800000000000D+00 -1.2021088922360D+00 -2.0866314959056D-01
120  1.1900000000000D+00 -1.1527012953381D+00 -1.9517172353284D-01
121  1.2000000000000D+00 -1.0968397088575D+00 -1.8152370997053D-01
122  1.2100000000000D+00 -1.0353525689804D+00 -1.6780858274303D-01
123  1.2200000000000D+00 -9.6912574706189D-01 -1.5411574608872D-01
124  1.2300000000000D+00 -8.9909128594408D-01 -1.4053405322679D-01
125  1.2400000000000D+00 -8.2621545577595D-01 -1.2715131100653D-01
126  1.2500000000000D+00 -7.5148628641379D-01 -1.1405377530525D-01
127  1.2600000000000D+00 -6.7590074404580D-01 -1.0132564219099D-01
128  1.2700000000000D+00 -6.0045173005850D-01 -8.9048540211838D-02
129  1.2800000000000D+00 -5.2611507880934D-01 -7.7301029138532D-02
130  1.2900000000000D+00 -4.5383673834523D-01 -6.6158110725614D-02
131  1.3000000000000D+00 -3.8452031526308D-01 -5.5690756994017D-02
132  1.3100000000000D+00 -3.1901515888900D-01 -4.5965461349620D-02
133  1.3200000000000D+00 -2.5810516445921D-01 -3.7043818005526D-02
134  1.3300000000000D+00 -2.0249845235267D-01 -2.8982134485652D-02
135  1.3400000000000D+00 -1.5281808050309D-01 -2.1831081984165D-02
136  1.3500000000000D+00 -1.0959393901622D-01 -1.5635388116590D-02
137  1.3600000000000D+00 -7.3275489441648D-02 -1.0436313267794D-02
138  1.3700000000000D+00 -4.4133302006076D-02 -6.2584061805671D-03
139  1.3800000000000D+00 -2.2270409622767D-02 -3.1125036350837D-03
140  1.3900000000000D+00 -8.4637559253110D-03 -1.1055899636747D-03
141  1.4000000000000D+00 -2.1187382181345D-03 -1.7437524694118D-04
142  1.4100000000000D+00 -1.6955383145924D-04  5.9331534190160D-05
143  1.4200000000000D+00  1.0384513106823D-05  6.3960287137308D-06
144  1.4300000000000D+00 -5.1395451626481D-05 -2.0212734393754D-05
145  1.4400000000000D+00  1.4878699189318D-06  1.6044939585691D-06
146  1.4500000000000D+00  4.1077150144257D-06  2.8376777055383D-06
147  1.4600000000000D+00  2.4037102358637D-06  5.5970599266386D-08
148  1.4700000000000D+00  1.2180543072461D-06  2.8362499147519D-08
149  1.4800000000000D+00  0.0000000000000D+00  0.0000000000000D+00
150  1.4900000000000D+00  0.0000000000000D+00  0.0000000000000D+00
151  1.5000000000000D+00  0.0000000000000D+00  0.0000000000000D+00
152  1.5100000000000D+00  0.0000000000000D+00  0.0000000000000D+00
153  1.5200000000000D+00  0.0000000000000D+00  0.0000000000000D+00
154  1.5300000000000D+00  0.0000000000000D+00  0.0000000000000D+00
155  1.5400000000000D+00  0.0000000000000D+00  0.0000000000000D+00
156  1.5500000000000D+00  0.0000000000000D+00  0.0000000000000D+00
157  1.5600000000000D+00  0.0000000000000D+00  0.0000000000000D+00
158  1.5700000000000D+00  0.0000000000000D+00  0.0000000000000D+00
159  1.5800000000000D+00  0.0000000000000D+00  0.0000000000000D+00
160  1.5900000000000D+00  0.0000000000000D+00  0.0000000000000D+00
161  1.6000000000000D+00  0.0000000000000D+00  0.0000000000000D+00
162  1.6100000000000D+00  0.0000000000000D+00  0.0000000000000D+00
163  1.6200000000000D+00  0.0000000000000D+00  0.0000000000000D+00
164  1.6300000000000D+00  0.0000000000000D+00  0.0000000000000D+00
165  1.6400000000000D+00  0.0000000000000D+00  0.0000000000000D+00
166  1.6500000000000D+00  0.0000000000000D+00  0.0000000000000D+00
167  1.6600000000000D+00  0.0000000000000D+00  0.0000000000000D+00
168  1.6700000000000D+00  0.0000000000000D+00  0.0000000000000D+00
169  1.6800000000000D+00  0.0000000000000D+00  0.0000000000000D+00
170  1.6900000000000D+00  0.0000000000000D+00  0.0000000000000D+00
171  1.7000000000000D+00  0.0000000000000D+00  0.0000000000000D+00
172  1.7100000000000D+00  0.0000000000000D+00  0.0000000000000D+00
173  1.7200000000000D+00  0.0000000000000D+00  0.0000000000000D+00
174  1.7300000000000D+00  0.0000000000000D+00  0.0000000000000D+00
175  1.7400000000000D+00  0.0000000000000D+00  0.0000000000000D+00
176  1.7500000000000D+00  0.0000000000000D+00  0.0000000000000D+00
177  1.7600000000000D+00  0.0000000000000D+00  0.0000000000000D+00
178  1.7700000000000D+00  0.0000000000000D+00  0.0000000000000D+00
179  1.7800000000000D+00  0.0000000000000D+00  0.0000000000000D+00
180  1.7900000000000D+00  0.0000000000000D+00  0.0000000000000D+00
181  1.8000000000000D+00  0.0000000000000D+00  0.0000000000000D+00
182  1.8100000000000D+00  0.0000000000000D+00  0.0000000000000D+00
183  1.8200000000000D+00  0.0000000000000D+00  0.0000000000000D+00
184  1.8300000000000D+00  0.0000000000000D+00  0.0000000000000D+00
185  1.8400000000000D+00  0.0000000000000D+00  0.0000000000000D+00
186  1.8500000000000D+00  0.0000000000000D+00  0.0000000000000D+00
187  1.8600000000000D+00  0.0000000000000D+00  0.0000000000000D+00
188  1.8700000000000D+00  0.0000000000000D+00  0.0000000000000D+00
189  1.8800000000000D+00  0.0000000000000D+00  0.0000000000000D+00
190  1.8900000000000D+00  0.0000000000000D+00  0.0000000000000D+00
191  1.9000000000000D+00  0.0000000000000D+00  0.0000000000000D+00
192  1.9100000000000D+00  0.0000000000000D+00  0.0000000000000D+00
193  1.9200000000000D+00  0.0000000000000D+00  0.0000000000000D+00
194  1.9300000000000D+00  0.0000000000000D+00  0.0000000000000D+00
195  1.9400000000000D+00  0.0000000000000D+00  0.0000000000000D+00
196  1.9500000000000D+00  0.0000000000000D+00  0.0000000000000D+00
197  1.9600000000000D+00  0.0000000000000D+00  0.0000000000000D+00
198  1.9700000000000D+00  0.0000000000000D+00  0.0000000000000D+00
199  1.9800000000000D+00  0.0000000000000D+00  0.0000000000000D+00
200  1.9900000000000D+00  0.0000000000000D+00  0.0000000000000D+00
201  2.0000000000000D+00  0.0000000000000D+00  0.0000000000000D+00
202  2.0100000000000D+00  0.0000000000000D+00  0.0000000000000D+00
203  2.0200000000000D+00  0.0000000000000D+00  0.0000000000000D+00
204  2.0300000000000D+00  0.0000000000000D+00  0.0000000000000D+00
205  2.0400000000000D+00  0.0000000000000D+00  0.0000000000000D+00
206  2.0500000000000D+00  0.0000000000000D+00  0.0000000000000D+00
207  2.0600000000000D+00  0.0000000000000D+00  0.0000000000000D+00
208  2.0700000000000D+00  0.0000000000000D+00  0.0000000000000D+00
209  2.0800000000000D+00  0.0000000000000D+00  0.0000000000000D+00
210  2.0900000000000D+00  0.0000000000000D+00  0.0000000000000D+00
211  2.1000000000000D+00  0.0000000000000D+00  0.0000000000000D+00
212  2.1100000000000D+00  0.0000000000000D+00  0.0000000000000D+00
213  2.1200000000000D+00  0.0000000000000D+00  0.0000000000000D+00
214  2.1300000000000D+00  0.0000000000000D+00  0.0000000000000D+00
215  2.1400000000000D+00  0.0000000000000D+00  0.0000000000000D+00
216  2.1500000000000D+00  0.0000000000000D+00  0.0000000000000D+00
217  2.1600000000000D+00  0.0000000000000D+00  0.0000000000000D+00
218  2.1700000000000D+00  0.0000000000000D+00  0.0000000000000D+00
219  2.1800000000000D+00  0.0000000000000D+00  0.0000000000000D+00
220  2.1900000000000D+00  0.0000000000000D+00  0.0000000000000D+00
221  2.2000000000000D+00  0.0000000000000D+00  0.0000000000000D+00
222  2.2100000000000D+00  0.0000000000000D+00  0.0000000000000D+00
223  2.2200000000000D+00  0.0000000000000D+00  0.0000000000000D+00
224  2.2300000000000D+00  0.0000000000000D+00  0.0000000000000D+00
225  2.2400000000000D+00  0.0000000000000D+00  0.0000000000000D+00
226  2.2500000000000D+00  0.0000000000000D+00  0.0000000000000D+00
227  2.2600000000000D+00  0.0000000000000D+00  0.0000000000000D+00
228  2.2700000000000D+00  0.0000000000000D+00  0.0000000000000D+00
229  2.2800000000000D+00  0.0000000000000D+00  0.0000000000000D+00
230  2.2900000000000D+00  0.0000000000000D+00  0.0000000000000D+00
231  2.3000000000000D+00  0.0000000000000D+00  0.0000000000000D+00
232  2.3100000000000D+00  0.0000000000000D+00  0.0000000000000D+00
233  2.3200000000000D+00  0.0000000000000D+00  0.0000000000000D+00
234  2.3300000000000D+00  0.0000000000000D+00  0.0000000000000D+00
235  2.3400000000000D+00  0.0000000000000D+00  0.0000000000000D+00
236  2.3500000000000D+00  0.0000000000000D+00  0.0000000000000D+00
237  2.3600000000000D+00  0.0000000000000D+00  0.0000000000000D+00
238  2.3700000000000D+00  0.0000000000000D+00  0.0000000000000D+00
239  2.3800000000000D+00  0.0000000000000D+00  0.0000000000000D+00
240  2.3900000000000D+00  0.0000000000000D+00  0.0000000000000D+00
241  2.4000000000000D+00  0.0000000000000D+00  0.0000000000000D+00
242  2.4100000000000D+00  0.0000000000000D+00  0.0000000000000D+00
243  2.4200000000000D+00  0.0000000000000D+00  0.0000000000000D+00
244  2.4300000000000D+00  0.0000000000000D+00  0.0000000000000D+00
245  2.4400000000000D+00  0.0000000000000D+00  0.0000000000000D+00
246  2.4500000000000D+00  0.0000000000000D+00  0.0000000000000D+00
247  2.4600000000000D+00  0.0000000000000D+00  0.0000000000000D+00
248  2.4700000000000D+00  0.0000000000000D+00  0.0000000000000D+00
249  2.4800000000000D+00  0.0000000000000D+00  0.0000000000000D+00
250  2.4900000000000D+00  0.0000000000000D+00  0.0000000000000D+00
251  2.5000000000000D+00  0.0000000000000D+00  0.0000000000000D+00
252  2.5100000000000D+00  0.0000000000000D+00  0.0000000000000D+00
253  2.5200000000000D+00  0.0000000000000D+00  0.0000000000000D+00
254  2.5300000000000D+00  0.0000000000000D+00  0.0000000000000D+00
255  2.5400000000000D+00  0.0000000000000D+00  0.0000000000000D+00
256  2.5500000000000D+00  0.0000000000000D+00  0.0000000000000D+00
257  2.5600000000000D+00  0.0000000000000D+00  0.0000000000000D+00
258  2.5700000000000D+00  0.0000000000000D+00  0.0000000000000D+00
259  2.5800000000000D+00  0.0000000000000D+00  0.0000000000000D+00
260  2.5900000000000D+00  0.0000000000000D+00  0.0000000000000D+00
261  2.6000000000000D+00  0.0000000000000D+00  0.0000000000000D+00
262  2.6100000000000D+00  0.0000000000000D+00  0.0000000000000D+00
263  2.6200000000000D+00  0.0000000000000D+00  0.0000000000000D+00
264  2.6300000000000D+00  0.0000000000000D+00  0.0000000000000D+00
265  2.6400000000000D+00  0.0000000000000D+00  0.0000000000000D+00
266  2.6500000000000D+00  0.0000000000000D+00  0.0000000000000D+00
267  2.6600000000000D+00  0.0000000000000D+00  0.0000000000000D+00
268  2.6700000000000D+00  0.0000000000000D+00  0.0000000000000D+00
269  2.6800000000000D+00  0.0000000000000D+00  0.0000000000000D+00
270  2.6900000000000D+00  0.0000000000000D+00  0.0000000000000D+00
271  2.7000000000000D+00  0.0000000000000D+00  0.0000000000000D+00
272  2.7100000000000D+00  0.0000000000000D+00  0.0000000000000D+00
273  2.7200000000000D+00  0.0000000000000D+00  0.0000000000000D+00
274  2.7300000000000D+00  0.0000000000000D+00  0.0000000000000D+00
275  2.7400000000000D+00  0.0000000000000D+00  0.0000000000000D+00
276  2.7500000000000D+00  0.0000000000000D+00  0.0000000000000D+00
277  2.7600000000000D+00  0.0000000000000D+00  0.0000000000000D+00
278  2.7700000000000D+00  0.0000000000000D+00  0.0000000000000D+00
279  2.7800000000000D+00  0.0000000000000D+00  0.0000000000000D+00
280  2.7900000000000D+00  0.0000000000000D+00  0.0000000000000D+00
281  2.8000000000000D+00  0.0000000000000D+00  0.0000000000000D+00
282  2.8100000000000D+00  0.0000000000000D+00  0.0000000000000D+00
283  2.8200000000000D+00  0.0000000000000D+00  0.0000000000000D+00
284  2.8300000000000D+00  0.0000000000000D+00  0.0000000000000D+00
285  2.8400000000000D+00  0.0000000000000D+00  0.0000000000000D+00
286  2.8500000000000D+00  0.0000000000000D+00  0.0000000000000D+00
287  2.8600000000000D+00  0.0000000000000D+00  0.0000000000000D+00
288  2.8700000000000D+00  0.0000000000000D+00  0.0000000000000D+00
289  2.8800000000000D+00  0.0000000000000D+00  0.0000000000000D+00
290  2.8900000000000D+00  0.0000000000000D+00  0.0000000000000D+00
291  2.9000000000000D+00  0.0000000000000D+00  0.0000000000000D+00
292  2.9100000000000D+00  0.0000000000000D+00  0.0000000000000D+00
293  2.9200000000000D+00  0.0000000000000D+00  0.0000000000000D+00
294  2.9300000000000D+00  0.0000000000000D+00  0.0000000000000D+00
295  2.9400000000000D+00  0.0000000000000D+00  0.0000000000000D+00
296  2.9500000000000D+00  0.0000000000000D+00  0.0000000000000D+00
297  2.9600000000000D+00  0.0000000000000D+00  0.0000000000000D+00
298  2.9700000000000D+00  0.0000000000000D+00  0.0000000000000D+00
299  2.9800000000000D+00  0.0000000000000D+00  0.0000000000000D+00
300  2.9900000000000D+00  0.0000000000000D+00  0.0000000000000D+00
301  3.0000000000000D+00  0.0000000000000D+00  0.0000000000000D+00
302  3.0100000000000D+00  0.0000000000000D+00  0.0000000000000D+00
303  3.0200000000000D+00  0.0000000000000D+00  0.0000000000000D+00
304  3.0300000000000D+00  0.0000000000000D+00  0.0000000000000D+00
305  3.0400000000000D+00  0.0000000000000D+00  0.0000000000000D+00
306  3.0500000000000D+00  0.0000000000000D+00  0.0000000000000D+00
307  3.0600000000000D+00  0.0000000000000D+00  0.0000000000000D+00
308  3.0700000000000D+00  0.0000000000000D+00  0.0000000000000D+00
309  3.0800000000000D+00  0.0000000000000D+00  0.0000000000000D+00
310  3.0900000000000D+00  0.0000000000000D+00  0.0000000000000D+00
311  3.1000000000000D+00  0.0000000000000D+00  0.0000000000000D+00
312  3.1100000000000D+00  0.0000000000000D+00  0.0000000000000D+00
313  3.1200000000000D+00  0.0000000000000D+00  0.0000000000000D+00
314  3.1300000000000D+00  0.0000000000000D+00  0.0000000000000D+00
315  3.1400000000000D+00  0.0000000000000D+00  0.0000000000000D+00
316  3.1500000000000D+00  0.0000000000000D+00  0.0000000000000D+00
317  3.1600000000000D+00  0.0000000000000D+00  0.0000000000000D+00
318  3.1700000000000D+00  0.0000000000000D+00  0.0000000000000D+00
319  3.1800000000000D+00  0.0000000000000D+00  0.0000000000000D+00
320  3.1900000000000D+00  0.0000000000000D+00  0.0000000000000D+00
321  3.2000000000000D+00  0.0000000000000D+00  0.0000000000000D+00
322  3.2100000000000D+00  0.0000000000000D+00  0.0000000000000D+00
323  3.2200000000000D+00  0.0000000000000D+00  0.0000000000000D+00
324  3.2300000000000D+00  0.0000000000000D+00  0.0000000000000D+00
325  3.2400000000000D+00  0.0000000000000D+00  0.0000000000000D+00
326  3.2500000000000D+00  0.0000000000000D+00  0.0000000000000D+00
327  3.2600000000000D+00  0.0000000000000D+00  0.0000000000000D+00
328  3.2700000000000D+00  0.0000000000000D+00  0.0000000000000D+00
329  3.2800000000000D+00  0.0000000000000D+00  0.0000000000000D+00
330  3.2900000000000D+00  0.0000000000000D+00  0.0000000000000D+00
331  3.3000000000000D+00  0.0000000000000D+00  0.0000000000000D+00
332  3.3100000000000D+00  0.0000000000000D+00  0.0000000000000D+00
333  3.3200000000000D+00  0.0000000000000D+00  0.0000000000000D+00
334  3.3300000000000D+00  0.0000000000000D+00  0.0000000000000D+00
335  3.3400000000000D+00  0.0000000000000D+00  0.0000000000000D+00
336  3.3500000000000D+00  0.0000000000000D+00  0.0000000000000D+00
337  3.3600000000000D+00  0.0000000000000D+00  0.0000000000000D+00
338  3.3700000000000D+00  0.0000000000000D+00  0.0000000000000D+00
339  3.3800000000000D+00  0.0000000000000D+00  0.0000000000000D+00
340  3.3900000000000D+00  0.0000000000000D+00  0.0000000000000D+00
341  3.4000000000000D+00  0.0000000000000D+00  0.0000000000000D+00
342  3.4100000000000D+00  0.0000000000000D+00  0.0000000000000D+00
343  3.4200000000000D+00  0.0000000000000D+00  0.0000000000000D+00
344  3.4300000000000D+00  0.0000000000000D+00  0.0000000000000D+00
345  3.4400000000000D+00  0.0000000000000D+00  0.0000000000000D+00
346  3.4500000000000D+00  0.0000000000000D+00  0.0000000000000D+00
347  3.4600000000000D+00  0.0000000000000D+00  0.0000000000000D+00
348  3.4700000000000D+00  0.0000000000000D+00  0.0000000000000D+00
349  3.4800000000000D+00  0.0000000000000D+00  0.0000000000000D+00
350  3.4900000000000D+00  0.0000000000000D+00  0.0000000000000D+00
351  3.5000000000000D+00  0.0000000000000D+00  0.0000000000000D+00
352  3.5100000000000D+00  0.0000000000000D+00  0.0000000000000D+00
353  3.5200000000000D+00  0.0000000000000D+00  0.0000000000000D+00
354  3.5300000000000D+00  0.0000000000000D+00  0.0000000000000D+00
355  3.5400000000000D+00  0.0000000000000D+00  0.0000000000000D+00
356  3.5500000000000D+00  0.0000000000000D+00  0.0000000000000D+00
357  3.5600000000000D+00  0.0000000000000D+00  0.0000000000000D+00
358  3.5700000000000D+00  0.0000000000000D+00  0.0000000000000D+00
359  3.5800000000000D+00  0.0000000000000D+00  0.0000000000000D+00
360  3.5900000000000D+00  0.0000000000000D+00  0.0000000000000D+00
361  3.6000000000000D+00  0.0000000000000D+00  0.0000000000000D+00
362  3.6100000000000D+00  0.0000000000000D+00  0.0000000000000D+00
363  3.6200000000000D+00  0.0000000000000D+00  0.0000000000000D+00
364  3.6300000000000D+00  0.0000000000000D+00  0.0000000000000D+00
365  3.6400000000000D+00  0.0000000000000D+00  0.0000000000000D+00
366  3.6500000000000D+00  0.0000000000000D+00  0.0000000000000D+00
367  3.6600000000000D+00  0.0000000000000D+00  0.0000000000000D+00
368  3.6700000000000D+00  0.0000000000000D+00  0.0000000000000D+00
369  3.6800000000000D+00  0.0000000000000D+00  0.0000000000000D+00
370  3.6900000000000D+00  0.0000000000000D+00  0.0000000000000D+00
371  3.7000000000000D+00  0.0000000000000D+00  0.0000000000000D+00
372  3.7100000000000D+00  0.0000000000000D+00  0.0000000000000D+00
373  3.7200000000000D+00  0.0000000000000D+00  0.0000000000000D+00
374  3.7300000000000D+00  0.0000000000000D+00  0.0000000000000D+00
375  3.7400000000000D+00  0.0000000000000D+00  0.0000000000000D+00
376  3.7500000000000D+00  0.0000000000000D+00  0.0000000000000D+00
377  3.7600000000000D+00  0.0000000000000D+00  0.0000000000000D+00
378  3.7700000000000D+00  0.0000000000000D+00  0.0000000000000D+00
379  3.7800000000000D+00  0.0000000000000D+00  0.0000000000000D+00
380  3.7900000000000D+00  0.0000000000000D+00  0.0000000000000D+00
381  3.8000000000000D+00  0.0000000000000D+00  0.0000000000000D+00
382  3.8100000000000D+00  0.0000000000000D+00  0.0000000000000D+00
383  3.8200000000000D+00  0.0000000000000D+00  0.0000000000000D+00
384  3.8300000000000D+00  0.0000000000000D+00  0.0000000000000D+00
385  3.8400000000000D+00  0.0000000000000D+00  0.0000000000000D+00
386  3.8500000000000D+00  0.0000000000000D+00  0.0000000000000D+00
387  3.8600000000000D+00  0.0000000000000D+00  0.0000000000000D+00
388  3.8700000000000D+00  0.0000000000000D+00  0.0000000000000D+00
389  3.8800000000000D+00  0.0000000000000D+00  0.0000000000000D+00
390  3.8900000000000D+00  0.0000000000000D+00  0.0000000000000D+00
391  3.9000000000000D+00  0.0000000000000D+00  0.0000000000000D+00
392  3.9100000000000D+00  0.0000000000000D+00  0.0000000000000D+00
393  3.9200000000000D+00  0.0000000000000D+00  0.0000000000000D+00
394  3.9300000000000D+00  0.0000000000000D+00  0.0000000000000D+00
395  3.9400000000000D+00  0.0000000000000D+00  0.0000000000000D+00
396  3.9500000000000D+00  0.0000000000000D+00  0.0000000000000D+00
397  3.9600000000000D+00  0.0000000000000D+00  0.0000000000000D+00
398  3.9700000000000D+00  0.0000000000000D+00  0.0000000000000D+00
399  3.9800000000000D+00  0.0000000000000D+00  0.0000000000000D+00
400  3.9900000000000D+00  0.0000000000000D+00  0.0000000000000D+00
401  4.0000000000000D+00  0.0000000000000D+00  0.0000000000000D+00
402  4.0100000000000D+00  0.0000000000000D+00  0.0000000000000D+00
403  4.0200000000000D+00  0.0000000000000D+00  0.0000000000000D+00
404  4.0300000000000D+00  0.0000000000000D+00  0.0000000000000D+00
405  4.0400000000000D+00  0.0000000000000D+00  0.0000000000000D+00
406  4.0500000000000D+00  0.0000000000000D+00  0.0000000000000D+00
407  4.0600000000000D+00  0.0000000000000D+00  0.0000000000000D+00
408  4.0700000000000D+00  0.0000000000000D+00  0.0000000000000D+00
409  4.0800000000000D+00  0.0000000000000D+00  0.0000000000000D+00
410  4.0900000000000D+00  0.0000000000000D+00  0.0000000000000D+00
411  4.1000000000000D+00  0.0000000000000D+00  0.0000000000000D+00
412  4.1100000000000D+00  0.0000000000000D+00  0.0000000000000D+00
413  4.1200000000000D+00  0.0000000000000D+00  0.0000000000000D+00
414  4.1300000000000D+00  0.0000000000000D+00  0.0000000000000D+00
415  4.1400000000000D+00  0.0000000000000D+00  0.0000000000000D+00
416  4.1500000000000D+00  0.0000000000000D+00  0.0000000000000D+00
417  4.1600000000000D+00  0.0000000000000D+00  0.0000000000000D+00
418  4.1700000000000D+00  0.0000000000000D+00  0.0000000000000D+00
419  4.1800000000000D+00  0.0000000000000D+00  0.0000000000000D+00
420  4.1900000000000D+00  0.0000000000000D+00  0.0000000000000D+00
421  4.2000000000000D+00  0.0000000000000D+00  0.0000000000000D+00
422  4.2100000000000D+00  0.0000000000000D+00  0.0000000000000D+00
423  4.2200000000000D+00  0.0000000000000D+00  0.0000000000000D+00
424  4.2300000000000D+00  0.0000000000000D+00  0.0000000000000D+00
425  4.2400000000000D+00  0.0000000000000D+00  0.0000000000000D+00
426  4.2500000000000D+00  0.0000000000000D+00  0.0000000000000D+00
427  4.2600000000000D+00  0.0000000000000D+00  0.0000000000000D+00
428  4.2700000000000D+00  0.0000000000000D+00  0.0000000000000D+00
429  4.2800000000000D+00  0.0000000000000D+00  0.0000000000000D+00
430  4.2900000000000D+00  0.0000000000000D+00  0.0000000000000D+00
431  4.3000000000000D+00  0.0000000000000D+00  0.0000000000000D+00
432  4.3100000000000D+00  0.0000000000000D+00  0.0000000000000D+00
433  4.3200000000000D+00  0.0000000000000D+00  0.0000000000000D+00
434  4.3300000000000D+00  0.0000000000000D+00  0.0000000000000D+00
435  4.3400000000000D+00  0.0000000000000D+00  0.0000000000000D+00
436  4.3500000000000D+00  0.0000000000000D+00  0.0000000000000D+00
437  4.3600000000000D+00  0.0000000000000D+00  0.0000000000000D+00
438  4.3700000000000D+00  0.0000000000000D+00  0.0000000000000D+00
439  4.3800000000000D+00  0.0000000000000D+00  0.0000000000000D+00
440  4.3900000000000D+00  0.0000000000000D+00  0.0000000000000D+00
441  4.4000000000000D+00  0.0000000000000D+00  0.0000000000000D+00
442  4.4100000000000D+00  0.0000000000000D+00  0.0000000000000D+00
443  4.4200000000000D+00  0.0000000000000D+00  0.0000000000000D+00