I     ONCVPSP-3.3.0  r_core=   1.97279   1.85857   1.85857
53.0000     17.0000      180503    zatom,zion,pspd
8 -116133   2     4   600     0    pspcod,pspxc,lmax,lloc,mmax,r2well
5.99000000  8.80000000  0.00000000    rchrg fchrg qchrg
2     4     2     0    nproj
3     1           extension_switch
4     3     0    nprojso
0                         1.2991142932152D+00  7.3117016674620D+00
1  0.0000000000000D+00 -4.8581416667304D-11  8.9902946198706D-12
2  1.0000000000000D-02  2.6771302086535D-02  1.0570972739435D-02
3  2.0000000000000D-02  5.3398033846423D-02  2.1184013973403D-02
4  3.0000000000000D-02  7.9736312335954D-02  3.1881000745541D-02
5  4.0000000000000D-02  1.0564362637576D-01  4.2703427885966D-02
6  5.0000000000000D-02  1.3097951494140D-01  5.3692218622942D-02
7  6.0000000000000D-02  1.5560623659829D-01  6.4887537250322D-02
8  7.0000000000000D-02  1.7938942705267D-01  7.6328604525525D-02
9  8.0000000000000D-02  2.0219874193895D-01  8.8053516463802D-02
10  9.0000000000000D-02  2.2390848202402D-01  1.0009906718337D-01
11  1.0000000000000D-01  2.4439819808105D-01  1.1250057644267D-01
12  1.1000000000000D-01  2.6355327276886D-01  1.2529172249544D-01
13  1.2000000000000D-01  2.8126547694694D-01  1.3850438087188D-01
14  1.3000000000000D-01  2.9743349796146D-01  1.5216846967436D-01
15  1.4000000000000D-01  3.1196343755294D-01  1.6631180195464D-01
16  1.5000000000000D-01  3.2476927716163D-01  1.8095994571610D-01
17  1.6000000000000D-01  3.3577330854106D-01  1.9613609205878D-01
18  1.7000000000000D-01  3.4490652773438D-01  2.1186093195826D-01
19  1.8000000000000D-01  3.5210899061987D-01  2.2815254214009D-01
20  1.9000000000000D-01  3.5733012839213D-01  2.4502628048113D-01
21  2.0000000000000D-01  3.6052902151269D-01  2.6249469133710D-01
22  2.1000000000000D-01  3.6167463083776D-01  2.8056742116186D-01
23  2.2000000000000D-01  3.6074598481049D-01  2.9925114474945D-01
24  2.3000000000000D-01  3.5773232179069D-01  3.1854950239312D-01
25  2.4000000000000D-01  3.5263318678427D-01  3.3846304821904D-01
26  2.5000000000000D-01  3.4545848202860D-01  3.5898920991339D-01
27  2.6000000000000D-01  3.3622847108659D-01  3.8012226002267D-01
28  2.7000000000000D-01  3.2497373630131D-01  4.0185329896693D-01
29  2.8000000000000D-01  3.1173508966362D-01  4.2417024986489D-01
30  2.9000000000000D-01  2.9656343734627D-01  4.4705786522879D-01
31  3.0000000000000D-01  2.7951959835958D-01  4.7049774554506D-01
32  3.1000000000000D-01  2.6067407798356D-01  4.9446836971509D-01
33  3.2000000000000D-01  2.4010679683008D-01  5.1894513728839D-01
34  3.3000000000000D-01  2.1790677658457D-01  5.4390042237846D-01
35  3.4000000000000D-01  1.9417178366902D-01  5.6930363910960D-01
36  3.5000000000000D-01  1.6900793225648D-01  5.9512131840191D-01
37  3.6000000000000D-01  1.4252924825008D-01  6.2131719585999D-01
38  3.7000000000000D-01  1.1485719601701D-01  6.4785231049104D-01
39  3.8000000000000D-01  8.6120169838349D-02  6.7468511393781D-01
40  3.9000000000000D-01  5.6452952198445D-02  7.0177158987346D-01
41  4.0000000000000D-01  2.5996141192797D-02  7.2906538316718D-01
42  4.1000000000000D-01 -5.1044505213665D-03  7.5651793839339D-01
43  4.2000000000000D-01 -3.6698422671016D-02  7.8407864722142D-01
44  4.3000000000000D-01 -6.8631437523465D-02  8.1169500418931D-01
45  4.4000000000000D-01 -1.0074589045151D-01  8.3931277033292D-01
46  4.5000000000000D-01 -1.3288159800321D-01  8.6687614411116D-01
47  4.6000000000000D-01 -1.6487650048090D-01  8.9432793903932D-01
48  4.7000000000000D-01 -1.9656737595560D-01  9.2160976741648D-01
49  4.8000000000000D-01 -2.2779056257775D-01  9.4866222950753D-01
50  4.9000000000000D-01 -2.5838268599351D-01  9.7542510751898D-01
51  5.0000000000000D-01 -2.8818138863793D-01  1.0018375636871D+00
52  5.1000000000000D-01 -3.1702605765275D-01  1.0278383417795D+00
53  5.2000000000000D-01 -3.4475854816729D-01  1.0533659712967D+00
54  5.3000000000000D-01 -3.7122389868622D-01  1.0783589736463D+00
55  5.4000000000000D-01 -3.9627103534847D-01  1.1027560695548D+00
56  5.5000000000000D-01 -4.1975346185584D-01  1.1264963869725D+00
57  5.6000000000000D-01 -4.4152993191987D-01  1.1495196687244D+00
58  5.7000000000000D-01 -4.6146510113994D-01  1.1717664791568D+00
59  5.8000000000000D-01 -4.7943015530395D-01  1.1931784090331D+00
60  5.9000000000000D-01 -4.9530341219631D-01  1.2136982779323D+00
61  6.0000000000000D-01 -5.0897089410479D-01  1.2332703334151D+00
62  6.1000000000000D-01 -5.2032686833893D-01  1.2518404462290D+00
63  6.2000000000000D-01 -5.2927435320572D-01  1.2693563008376D+00
64  6.3000000000000D-01 -5.3572558703551D-01  1.2857675805755D+00
65  6.4000000000000D-01 -5.3960245800965D-01  1.3010261467458D+00
66  6.5000000000000D-01 -5.4083689271072D-01  1.3150862110018D+00
67  6.6000000000000D-01 -5.3937120149802D-01  1.3279045003736D+00
68  6.7000000000000D-01 -5.3515837900148D-01  1.3394404143304D+00
69  6.8000000000000D-01 -5.2816235822669D-01  1.3496561732953D+00
70  6.9000000000000D-01 -5.1835821697282D-01  1.3585169580604D+00
71  7.0000000000000D-01 -5.0573233548069D-01  1.3659910395848D+00
72  7.1000000000000D-01 -4.9028250445032D-01  1.3720498986913D+00
73  7.2000000000000D-01 -4.7201798279472D-01  1.3766683352158D+00
74  7.3000000000000D-01 -4.5095950472875D-01  1.3798245662038D+00
75  7.4000000000000D-01 -4.2713923602721D-01  1.3815003127851D+00
76  7.5000000000000D-01 -4.0060067952310D-01  1.3816808754066D+00
77  7.6000000000000D-01 -3.7139853015555D-01  1.3803551971391D+00
78  7.7000000000000D-01 -3.3959848011506D-01  1.3775159148268D+00
79  7.8000000000000D-01 -3.0527697487039D-01  1.3731593978873D+00
80  7.9000000000000D-01 -2.6852092109501D-01  1.3672857746206D+00
81  8.0000000000000D-01 -2.2942734774288D-01  1.3598989459329D+00
82  8.1000000000000D-01 -1.8810302174779D-01  1.3510065864261D+00
83  8.2000000000000D-01 -1.4466402004038D-01  1.3406201328544D+00
84  8.3000000000000D-01 -9.9235259789708D-02  1.3287547599975D+00
85  8.4000000000000D-01 -5.1949988980087D-02  1.3154293440446D+00
86  8.5000000000000D-01 -2.9492396284371D-03  1.3006664136363D+00
87  8.6000000000000D-01  4.7618753867773D-02  1.2844920887513D+00
88  8.7000000000000D-01  9.9599168589496D-02  1.2669360076789D+00
89  8.8000000000000D-01  1.5283123633885D-01  1.2480312423555D+00
90  8.9000000000000D-01  2.0714891329533D-01  1.2278142023928D+00
91  9.0000000000000D-01  2.6238157298209D-01  1.2063245281659D+00
92  9.1000000000000D-01  3.1835471932095D-01  1.1836049733693D+00
93  9.2000000000000D-01  3.7489071645172D-01  1.1597012774898D+00
94  9.3000000000000D-01  4.3180953190596D-01  1.1346620286818D+00
95  9.4000000000000D-01  4.8892948965473D-01  1.1085385175650D+00
96  9.5000000000000D-01  5.4606802949847D-01  1.0813845824983D+00
97  9.6000000000000D-01  6.0304246923178D-01  1.0532564469142D+00
98  9.7000000000000D-01  6.5967076599922D-01  1.0242125493255D+00
99  9.8000000000000D-01  7.1577227325973D-01  9.9431336664107D-01
100  9.9000000000000D-01  7.7116848979600D-01  9.6362123145198D-01
101  1.0000000000000D+00  8.2568379724331D-01  9.3220014396707D-01
102  1.0100000000000D+00  8.7914618266700D-01  9.0011557929493D-01
103  1.0200000000000D+00  9.3138794279398D-01  8.6743429078335D-01
104  1.0300000000000D+00  9.8224636658898D-01  8.3422411013759D-01
105  1.0400000000000D+00  1.0315643929799D+00  8.0055374504736D-01
106  1.0500000000000D+00  1.0791912406586D+00  7.6649257505683D-01
107  1.0600000000000D+00  1.1249830070244D+00  7.3211044641382D-01
108  1.0700000000000D+00  1.1688032334955D+00  6.9747746663284D-01
109  1.0800000000000D+00  1.2105234345841D+00  6.6266379950216D-01
110  1.0900000000000D+00  1.2500235883060D+00  6.2773946125836D-01
111  1.1000000000000D+00  1.2871925857108D+00  5.9277411864038D-01
112  1.1100000000000D+00  1.3219286375096D+00  5.5783688952291D-01
113  1.1200000000000D+00  1.3541396360237D+00  5.2299614681054D-01
114  1.1300000000000D+00  1.3837434708562D+00  4.8831932625996D-01
115  1.1400000000000D+00  1.4106682969849D+00  4.5387273887103D-01
116  1.1500000000000D+00  1.4348527541794D+00  4.1972138846723D-01
117  1.1600000000000D+00  1.4562461369364D+00  3.8592879505467D-01
118  1.1700000000000D+00  1.4748085143031D+00  3.5255682453089D-01
119  1.1800000000000D+00  1.4905107993103D+00  3.1966552527239D-01
120  1.1900000000000D+00  1.5033347679468D+00  2.8731297210325D-01
121  1.2000000000000D+00  1.5132730278794D+00  2.5555511811132D-01
122  1.2100000000000D+00  1.5203289373331D+00  2.2444565475043D-01
123  1.2200000000000D+00  1.5245164748906D+00  1.9403588061755D-01
124  1.2300000000000D+00  1.5258600611959D+00  1.6437457925686D-01
125  1.2400000000000D+00  1.5243943336763D+00  1.3550790632542D-01
126  1.2500000000000D+00  1.5201638758161D+00  1.0747928638500D-01
127  1.2600000000000D+00  1.5132229026729D+00  8.0329319554304D-02
128  1.2700000000000D+00  1.5036349044498D+00  5.4095698235319D-02
129  1.2800000000000D+00  1.4914722503000D+00  2.8813134059637D-02
130  1.2900000000000D+00  1.4768157547052D+00  4.5132951600908D-03
131  1.3000000000000D+00  1.4597542088233D+00 -1.8775246133987D-02
132  1.3100000000000D+00  1.4403838795442D+00 -4.1027055157228D-02
133  1.3200000000000D+00  1.4188079791054D+00 -6.2219866343014D-02
134  1.3300000000000D+00  1.3951361081162D+00 -8.2334604240536D-02
135  1.3400000000000D+00  1.3694836751898D+00 -1.0135539422641D-01
136  1.3500000000000D+00  1.3419712963363D+00 -1.1926956302876D-01
137  1.3600000000000D+00  1.3127241773506D+00 -1.3606762918438D-01
138  1.3700000000000D+00  1.2818714826246D+00 -1.5174328366062D-01
139  1.3800000000000D+00  1.2495456937051D+00 -1.6629336083245D-01
140  1.3900000000000D+00  1.2158819610816D+00 -1.7971780006305D-01
141  1.4000000000000D+00  1.1810174525914D+00 -1.9201959820007D-01
142  1.4100000000000D+00  1.1450907019195D+00 -2.0320475324213D-01
143  1.4200000000000D+00  1.1082409605671D+00 -2.1328219955267D-01
144  1.4300000000000D+00  1.0706075566051D+00 -2.2226373495147D-01
145  1.4400000000000D+00  1.0323292636425D+00 -2.3016394005030D-01
146  1.4500000000000D+00  9.9354368293621D-01 -2.3700009025680D-01
147  1.4600000000000D+00  9.5438664210840D-01 -2.4279206080955D-01
148  1.4700000000000D+00  9.1499161309101D-01 -2.4756222530950D-01
149  1.4800000000000D+00  8.7548915235016D-01 -2.5133534815052D-01
150  1.4900000000000D+00  8.3600636610464D-01 -2.5413847130699D-01
151  1.5000000000000D+00  7.9666640272115D-01 -2.5600079592357D-01
152  1.5100000000000D+00  7.5758797528101D-01 -2.5695355916075D-01
153  1.5200000000000D+00  7.1888491550468D-01 -2.5702990675287D-01
154  1.5300000000000D+00  6.8066576209412D-01 -2.5626476174003D-01
155  1.5400000000000D+00  6.4303338409218D-01 -2.5469468982119D-01
156  1.5500000000000D+00  6.0608464166353D-01 -2.5235776178968D-01
157  1.5600000000000D+00  5.6991008494875D-01 -2.4929341349205D-01
158  1.5700000000000D+00  5.3459369224131D-01 -2.4554230374595D-01
159  1.5800000000000D+00  5.0021264841432D-01 -2.4114617066506D-01
160  1.5900000000000D+00  4.6683716355115D-01 -2.3614768677426D-01
161  1.6000000000000D+00  4.3453033302675D-01 -2.3059031338211D-01
162  1.6100000000000D+00  4.0334803768273D-01 -2.2451815451995D-01
163  1.6200000000000D+00  3.7333888562432D-01 -2.1797581094157D-01
164  1.6300000000000D+00  3.4454419305596D-01 -2.1100823440427D-01
165  1.6400000000000D+00  3.1699800585969D-01 -2.0366058275441D-01
166  1.6500000000000D+00  2.9072715827915D-01 -1.9597807594408D-01
167  1.6600000000000D+00  2.6575137038939D-01 -1.8800585352320D-01
168  1.6700000000000D+00  2.4208338002780D-01 -1.7978883365385D-01
169  1.6800000000000D+00  2.1972911044887D-01 -1.7137157418355D-01
170  1.6900000000000D+00  1.9868786911368D-01 -1.6279813576922D-01
171  1.7000000000000D+00  1.7895257828511D-01 -1.5411194756610D-01
172  1.7100000000000D+00  1.6051003269733D-01 -1.4535567542063D-01
173  1.7200000000000D+00  1.4334118441515D-01 -1.3657109306305D-01
174  1.7300000000000D+00  1.2742145009632D-01 -1.2779895618212D-01
175  1.7400000000000D+00  1.1272104020901D-01 -1.1907887986375D-01
176  1.7500000000000D+00  9.9205305565195D-02 -1.1044921922486D-01
177  1.7600000000000D+00  8.6835096460899D-02 -1.0194695277261D-01
178  1.7700000000000D+00  7.5567153841809D-02 -9.3607574440049D-02
179  1.7800000000000D+00  6.5354442385504D-02 -8.5464971397762D-02
180  1.7900000000000D+00  5.6146664648731D-02 -7.7551352954316D-02
181  1.8000000000000D+00  4.7890575376197D-02 -6.9897126250371D-02
182  1.8100000000000D+00  4.0530112387062D-02 -6.2530732472782D-02
183  1.8200000000000D+00  3.4007216593511D-02 -5.5478665292639D-02
184  1.8300000000000D+00  2.8262802834811D-02 -4.8765529781438D-02
185  1.8400000000000D+00  2.3237605799013D-02 -4.2414090883922D-02
186  1.8500000000000D+00  1.8873156400120D-02 -3.6445375889877D-02
187  1.8600000000000D+00  1.5112612032193D-02 -3.0878744390891D-02
188  1.8700000000000D+00  1.1900924864687D-02 -2.5731798297405D-02
189  1.8800000000000D+00  9.1851175317756D-03 -2.1020332619151D-02
190  1.8900000000000D+00  6.9147867769365D-03 -1.6758345838383D-02
191  1.9000000000000D+00  5.0423766418892D-03 -1.2958004106883D-02
192  1.9100000000000D+00  3.5237753447890D-03 -9.6315837606992D-03
193  1.9200000000000D+00  2.3175067812376D-03 -6.7838456899339D-03
194  1.9300000000000D+00  1.3857651210144D-03 -4.4140540961334D-03
195  1.9400000000000D+00  6.9598444043897D-04 -2.5356017534494D-03
196  1.9500000000000D+00  2.2039076435499D-04 -1.1792996774341D-03
197  1.9600000000000D+00 -6.9864628302807D-05 -3.4503512659253D-04
198  1.9700000000000D+00 -1.9061083812211D-04  5.7159038872945D-05
199  1.9800000000000D+00 -1.6230796552648D-04  1.4305871962481D-04
200  1.9900000000000D+00 -6.2020661756055D-05  6.6771566492490D-05
201  2.0000000000000D+00  1.6049364990133D-05 -1.8272636408108D-05
202  2.0100000000000D+00  2.5270520662833D-05 -3.0300984495326D-05
203  2.0200000000000D+00  1.1980322167872D-06 -1.4837669410504D-06
204  2.0300000000000D+00 -5.8598625509709D-06  6.2588629752450D-06
205  2.0400000000000D+00 -3.1180862785202D-06  3.3951868713142D-06
206  2.0500000000000D+00  3.8843729313845D-07 -2.1185476774402D-07
207  2.0600000000000D+00  5.0226477085163D-07 -2.7393658707442D-07
208  2.0700000000000D+00  0.0000000000000D+00  0.0000000000000D+00
209  2.0800000000000D+00  0.0000000000000D+00  0.0000000000000D+00
210  2.0900000000000D+00  0.0000000000000D+00  0.0000000000000D+00
211  2.1000000000000D+00  0.0000000000000D+00  0.0000000000000D+00
212  2.1100000000000D+00  0.0000000000000D+00  0.0000000000000D+00
213  2.1200000000000D+00  0.0000000000000D+00  0.0000000000000D+00
214  2.1300000000000D+00  0.0000000000000D+00  0.0000000000000D+00
215  2.1400000000000D+00  0.0000000000000D+00  0.0000000000000D+00
216  2.1500000000000D+00  0.0000000000000D+00  0.0000000000000D+00
217  2.1600000000000D+00  0.0000000000000D+00  0.0000000000000D+00
218  2.1700000000000D+00  0.0000000000000D+00  0.0000000000000D+00
219  2.1800000000000D+00  0.0000000000000D+00  0.0000000000000D+00
220  2.1900000000000D+00  0.0000000000000D+00  0.0000000000000D+00
221  2.2000000000000D+00  0.0000000000000D+00  0.0000000000000D+00
222  2.2100000000000D+00  0.0000000000000D+00  0.0000000000000D+00
223  2.2200000000000D+00  0.0000000000000D+00  0.0000000000000D+00
224  2.2300000000000D+00  0.0000000000000D+00  0.0000000000000D+00
225  2.2400000000000D+00  0.0000000000000D+00  0.0000000000000D+00
226  2.2500000000000D+00  0.0000000000000D+00  0.0000000000000D+00
227  2.2600000000000D+00  0.0000000000000D+00  0.0000000000000D+00
228  2.2700000000000D+00  0.0000000000000D+00  0.0000000000000D+00
229  2.2800000000000D+00  0.0000000000000D+00  0.0000000000000D+00
230  2.2900000000000D+00  0.0000000000000D+00  0.0000000000000D+00
231  2.3000000000000D+00  0.0000000000000D+00  0.0000000000000D+00
232  2.3100000000000D+00  0.0000000000000D+00  0.0000000000000D+00
233  2.3200000000000D+00  0.0000000000000D+00  0.0000000000000D+00
234  2.3300000000000D+00  0.0000000000000D+00  0.0000000000000D+00
235  2.3400000000000D+00  0.0000000000000D+00  0.0000000000000D+00
236  2.3500000000000D+00  0.0000000000000D+00  0.0000000000000D+00
237  2.3600000000000D+00  0.0000000000000D+00  0.0000000000000D+00
238  2.3700000000000D+00  0.0000000000000D+00  0.0000000000000D+00
239  2.3800000000000D+00  0.0000000000000D+00  0.0000000000000D+00
240  2.3900000000000D+00  0.0000000000000D+00  0.0000000000000D+00
241  2.4000000000000D+00  0.0000000000000D+00  0.0000000000000D+00
242  2.4100000000000D+00  0.0000000000000D+00  0.0000000000000D+00
243  2.4200000000000D+00  0.0000000000000D+00  0.0000000000000D+00
244  2.4300000000000D+00  0.0000000000000D+00  0.0000000000000D+00
245  2.4400000000000D+00  0.0000000000000D+00  0.0000000000000D+00
246  2.4500000000000D+00  0.0000000000000D+00  0.0000000000000D+00
247  2.4600000000000D+00  0.0000000000000D+00  0.0000000000000D+00
248  2.4700000000000D+00  0.0000000000000D+00  0.0000000000000D+00
249  2.4800000000000D+00  0.0000000000000D+00  0.0000000000000D+00
250  2.4900000000000D+00  0.0000000000000D+00  0.0000000000000D+00
251  2.5000000000000D+00  0.0000000000000D+00  0.0000000000000D+00
252  2.5100000000000D+00  0.0000000000000D+00  0.0000000000000D+00
253  2.5200000000000D+00  0.0000000000000D+00  0.0000000000000D+00
254  2.5300000000000D+00  0.0000000000000D+00  0.0000000000000D+00
255  2.5400000000000D+00  0.0000000000000D+00  0.0000000000000D+00
256  2.5500000000000D+00  0.0000000000000D+00  0.0000000000000D+00
257  2.5600000000000D+00  0.0000000000000D+00  0.0000000000000D+00
258  2.5700000000000D+00  0.0000000000000D+00  0.0000000000000D+00
259  2.5800000000000D+00  0.0000000000000D+00  0.0000000000000D+00
260  2.5900000000000D+00  0.0000000000000D+00  0.0000000000000D+00
261  2.6000000000000D+00  0.0000000000000D+00  0.0000000000000D+00
262  2.6100000000000D+00  0.0000000000000D+00  0.0000000000000D+00
263  2.6200000000000D+00  0.0000000000000D+00  0.0000000000000D+00
264  2.6300000000000D+00  0.0000000000000D+00  0.0000000000000D+00
265  2.6400000000000D+00  0.0000000000000D+00  0.0000000000000D+00
266  2.6500000000000D+00  0.0000000000000D+00  0.0000000000000D+00
267  2.6600000000000D+00  0.0000000000000D+00  0.0000000000000D+00
268  2.6700000000000D+00  0.0000000000000D+00  0.0000000000000D+00
269  2.6800000000000D+00  0.0000000000000D+00  0.0000000000000D+00
270  2.6900000000000D+00  0.0000000000000D+00  0.0000000000000D+00
271  2.7000000000000D+00  0.0000000000000D+00  0.0000000000000D+00
272  2.7100000000000D+00  0.0000000000000D+00  0.0000000000000D+00
273  2.7200000000000D+00  0.0000000000000D+00  0.0000000000000D+00
274  2.7300000000000D+00  0.0000000000000D+00  0.0000000000000D+00
275  2.7400000000000D+00  0.0000000000000D+00  0.0000000000000D+00
276  2.7500000000000D+00  0.0000000000000D+00  0.0000000000000D+00
277  2.7600000000000D+00  0.0000000000000D+00  0.0000000000000D+00
278  2.7700000000000D+00  0.0000000000000D+00  0.0000000000000D+00
279  2.7800000000000D+00  0.0000000000000D+00  0.0000000000000D+00
280  2.7900000000000D+00  0.0000000000000D+00  0.0000000000000D+00
281  2.8000000000000D+00  0.0000000000000D+00  0.0000000000000D+00
282  2.8100000000000D+00  0.0000000000000D+00  0.0000000000000D+00
283  2.8200000000000D+00  0.0000000000000D+00  0.0000000000000D+00
284  2.8300000000000D+00  0.0000000000000D+00  0.0000000000000D+00
285  2.8400000000000D+00  0.0000000000000D+00  0.0000000000000D+00
286  2.8500000000000D+00  0.0000000000000D+00  0.0000000000000D+00
287  2.8600000000000D+00  0.0000000000000D+00  0.0000000000000D+00
288  2.8700000000000D+00  0.0000000000000D+00  0.0000000000000D+00
289  2.8800000000000D+00  0.0000000000000D+00  0.0000000000000D+00
290  2.8900000000000D+00  0.0000000000000D+00  0.0000000000000D+00
291  2.9000000000000D+00  0.0000000000000D+00  0.0000000000000D+00
292  2.9100000000000D+00  0.0000000000000D+00  0.0000000000000D+00
293  2.9200000000000D+00  0.0000000000000D+00  0.0000000000000D+00
294  2.9300000000000D+00  0.0000000000000D+00  0.0000000000000D+00
295  2.9400000000000D+00  0.0000000000000D+00  0.0000000000000D+00
296  2.9500000000000D+00  0.0000000000000D+00  0.0000000000000D+00
297  2.9600000000000D+00  0.0000000000000D+00  0.0000000000000D+00
298  2.9700000000000D+00  0.0000000000000D+00  0.0000000000000D+00
299  2.9800000000000D+00  0.0000000000000D+00  0.0000000000000D+00
300  2.9900000000000D+00  0.0000000000000D+00  0.0000000000000D+00
301  3.0000000000000D+00  0.0000000000000D+00  0.0000000000000D+00
302  3.0100000000000D+00  0.0000000000000D+00  0.0000000000000D+00
303  3.0200000000000D+00  0.0000000000000D+00  0.0000000000000D+00
304  3.0300000000000D+00  0.0000000000000D+00  0.0000000000000D+00
305  3.0400000000000D+00  0.0000000000000D+00  0.0000000000000D+00
306  3.0500000000000D+00  0.0000000000000D+00  0.0000000000000D+00
307  3.0600000000000D+00  0.0000000000000D+00  0.0000000000000D+00
308  3.0700000000000D+00  0.0000000000000D+00  0.0000000000000D+00
309  3.0800000000000D+00  0.0000000000000D+00  0.0000000000000D+00
310  3.0900000000000D+00  0.0000000000000D+00  0.0000000000000D+00
311  3.1000000000000D+00  0.0000000000000D+00  0.0000000000000D+00
312  3.1100000000000D+00  0.0000000000000D+00  0.0000000000000D+00
313  3.1200000000000D+00  0.0000000000000D+00  0.0000000000000D+00
314  3.1300000000000D+00  0.0000000000000D+00  0.0000000000000D+00
315  3.1400000000000D+00  0.0000000000000D+00  0.0000000000000D+00
316  3.1500000000000D+00  0.0000000000000D+00  0.0000000000000D+00
317  3.1600000000000D+00  0.0000000000000D+00  0.0000000000000D+00
318  3.1700000000000D+00  0.0000000000000D+00  0.0000000000000D+00
319  3.1800000000000D+00  0.0000000000000D+00  0.0000000000000D+00
320  3.1900000000000D+00  0.0000000000000D+00  0.0000000000000D+00
321  3.2000000000000D+00  0.0000000000000D+00  0.0000000000000D+00
322  3.2100000000000D+00  0.0000000000000D+00  0.0000000000000D+00
323  3.2200000000000D+00  0.0000000000000D+00  0.0000000000000D+00
324  3.2300000000000D+00  0.0000000000000D+00  0.0000000000000D+00
325  3.2400000000000D+00  0.0000000000000D+00  0.0000000000000D+00
326  3.2500000000000D+00  0.0000000000000D+00  0.0000000000000D+00
327  3.2600000000000D+00  0.0000000000000D+00  0.0000000000000D+00
328  3.2700000000000D+00  0.0000000000000D+00  0.0000000000000D+00
329  3.2800000000000D+00  0.0000000000000D+00  0.0000000000000D+00
330  3.2900000000000D+00  0.0000000000000D+00  0.0000000000000D+00
331  3.3000000000000D+00  0.0000000000000D+00  0.0000000000000D+00
332  3.3100000000000D+00  0.0000000000000D+00  0.0000000000000D+00
333  3.3200000000000D+00  0.0000000000000D+00  0.0000000000000D+00
334  3.3300000000000D+00  0.0000000000000D+00  0.0000000000000D+00
335  3.3400000000000D+00  0.0000000000000D+00  0.0000000000000D+00
336  3.3500000000000D+00  0.0000000000000D+00  0.0000000000000D+00
337  3.3600000000000D+00  0.0000000000000D+00  0.0000000000000D+00
338  3.3700000000000D+00  0.0000000000000D+00  0.0000000000000D+00
339  3.3800000000000D+00  0.0000000000000D+00  0.0000000000000D+00
340  3.3900000000000D+00  0.0000000000000D+00  0.0000000000000D+00
341  3.4000000000000D+00  0.0000000000000D+00  0.0000000000000D+00
342  3.4100000000000D+00  0.0000000000000D+00  0.0000000000000D+00
343  3.4200000000000D+00  0.0000000000000D+00  0.0000000000000D+00
344  3.4300000000000D+00  0.0000000000000D+00  0.0000000000000D+00
345  3.4400000000000D+00  0.0000000000000D+00  0.0000000000000D+00
346  3.4500000000000D+00  0.0000000000000D+00  0.0000000000000D+00
347  3.4600000000000D+00  0.0000000000000D+00  0.0000000000000D+00
348  3.4700000000000D+00  0.0000000000000D+00  0.0000000000000D+00
349  3.4800000000000D+00  0.0000000000000D+00  0.0000000000000D+00
350  3.4900000000000D+00  0.0000000000000D+00  0.0000000000000D+00
351  3.5000000000000D+00  0.0000000000000D+00  0.0000000000000D+00
352  3.5100000000000D+00  0.0000000000000D+00  0.0000000000000D+00
353  3.5200000000000D+00  0.0000000000000D+00  0.0000000000000D+00
354  3.5300000000000D+00  0.0000000000000D+00  0.0000000000000D+00
355  3.5400000000000D+00  0.0000000000000D+00  0.0000000000000D+00
356  3.5500000000000D+00  0.0000000000000D+00  0.0000000000000D+00
357  3.5600000000000D+00  0.0000000000000D+00  0.0000000000000D+00
358  3.5700000000000D+00  0.0000000000000D+00  0.0000000000000D+00
359  3.5800000000000D+00  0.0000000000000D+00  0.0000000000000D+00
360  3.5900000000000D+00  0.0000000000000D+00  0.0000000000000D+00
361  3.6000000000000D+00  0.0000000000000D+00  0.0000000000000D+00
362  3.6100000000000D+00  0.0000000000000D+00  0.0000000000000D+00
363  3.6200000000000D+00  0.0000000000000D+00  0.0000000000000D+00
364  3.6300000000000D+00  0.0000000000000D+00  0.0000000000000D+00
365  3.6400000000000D+00  0.0000000000000D+00  0.0000000000000D+00
366  3.6500000000000D+00  0.0000000000000D+00  0.0000000000000D+00
367  3.6600000000000D+00  0.0000000000000D+00  0.0000000000000D+00
368  3.6700000000000D+00  0.0000000000000D+00  0.0000000000000D+00
369  3.6800000000000D+00  0.0000000000000D+00  0.0000000000000D+00
370  3.6900000000000D+00  0.0000000000000D+00  0.0000000000000D+00
371  3.7000000000000D+00  0.0000000000000D+00  0.0000000000000D+00
372  3.7100000000000D+00  0.0000000000000D+00  0.0000000000000D+00
373  3.7200000000000D+00  0.0000000000000D+00  0.0000000000000D+00
374  3.7300000000000D+00  0.0000000000000D+00  0.0000000000000D+00
375  3.7400000000000D+00  0.0000000000000D+00  0.0000000000000D+00
376  3.7500000000000D+00  0.0000000000000D+00  0.0000000000000D+00
377  3.7600000000000D+00  0.0000000000000D+00  0.0000000000000D+00
378  3.7700000000000D+00  0.0000000000000D+00  0.0000000000000D+00
379  3.7800000000000D+00  0.0000000000000D+00  0.0000000000000D+00
380  3.7900000000000D+00  0.0000000000000D+00  0.0000000000000D+00
381  3.8000000000000D+00  0.0000000000000D+00  0.0000000000000D+00
382  3.8100000000000D+00  0.0000000000000D+00  0.0000000000000D+00
383  3.8200000000000D+00  0.0000000000000D+00  0.0000000000000D+00
384  3.8300000000000D+00  0.0000000000000D+00  0.0000000000000D+00
385  3.8400000000000D+00  0.0000000000000D+00  0.0000000000000D+00
386  3.8500000000000D+00  0.0000000000000D+00  0.0000000000000D+00
387  3.8600000000000D+00  0.0000000000000D+00  0.0000000000000D+00
388  3.8700000000000D+00  0.0000000000000D+00  0.0000000000000D+00
389  3.8800000000000D+00  0.0000000000000D+00  0.0000000000000D+00
390  3.8900000000000D+00  0.0000000000000D+00  0.0000000000000D+00
391  3.9000000000000D+00  0.0000000000000D+00  0.0000000000000D+00
392  3.9100000000000D+00  0.0000000000000D+00  0.0000000000000D+00
393  3.9200000000000D+00  0.0000000000000D+00  0.0000000000000D+00
394  3.9300000000000D+00  0.0000000000000D+00  0.0000000000000D+00
395  3.9400000000000D+00  0.0000000000000D+00  0.0000000000000D+00
396  3.9500000000000D+00  0.0000000000000D+00  0.0000000000000D+00
397  3.9600000000000D+00  0.0000000000000D+00  0.0000000000000D+00
398  3.9700000000000D+00  0.0000000000000D+00  0.0000000000000D+00
399  3.9800000000000D+00  0.0000000000000D+00  0.0000000000000D+00
400  3.9900000000000D+00  0.0000000000000D+00  0.0000000000000D+00
401  4.0000000000000D+00  0.0000000000000D+00  0.0000000000000D+00
402  4.0100000000000D+00  0.0000000000000D+00  0.0000000000000D+00
403  4.0200000000000D+00  0.0000000000000D+00  0.0000000000000D+00
404  4.0300000000000D+00  0.0000000000000D+00  0.0000000000000D+00
405  4.0400000000000D+00  0.0000000000000D+00  0.0000000000000D+00
406  4.0500000000000D+00  0.0000000000000D+00  0.0000000000000D+00
407  4.0600000000000D+00  0.0000000000000D+00  0.0000000000000D+00
408  4.0700000000000D+00  0.0000000000000D+00  0.0000000000000D+00
409  4.0800000000000D+00  0.0000000000000D+00  0.0000000000000D+00
410  4.0900000000000D+00  0.0000000000000D+00  0.0000000000000D+00
411  4.1000000000000D+00  0.0000000000000D+00  0.0000000000000D+00
412  4.1100000000000D+00  0.0000000000000D+00  0.0000000000000D+00
413  4.1200000000000D+00  0.0000000000000D+00  0.0000000000000D+00
414  4.1300000000000D+00  0.0000000000000D+00  0.0000000000000D+00
415  4.1400000000000D+00  0.0000000000000D+00  0.0000000000000D+00
416  4.1500000000000D+00  0.0000000000000D+00  0.0000000000000D+00
417  4.1600000000000D+00  0.0000000000000D+00  0.0000000000000D+00
418  4.1700000000000D+00  0.0000000000000D+00  0.0000000000000D+00
419  4.1800000000000D+00  0.0000000000000D+00  0.0000000000000D+00
420  4.1900000000000D+00  0.0000000000000D+00  0.0000000000000D+00
421  4.2000000000000D+00  0.0000000000000D+00  0.0000000000000D+00
422  4.2100000000000D+00  0.0000000000000D+00  0.0000000000000D+00
423  4.2200000000000D+00  0.0000000000000D+00  0.0000000000000D+00
424  4.2300000000000D+00  0.0000000000000D+00  0.0000000000000D+00
425  4.2400000000000D+00  0.0000000000000D+00  0.0000000000000D+00
426  4.2500000000000D+00  0.0000000000000D+00  0.0000000000000D+00
427  4.2600000000000D+00  0.0000000000000D+00  0.0000000000000D+00
428  4.2700000000000D+00  0.0000000000000D+00  0.0000000000000D+00
429  4.2800000000000D+00  0.0000000000000D+00  0.0000000000000D+00
430  4.2900000000000D+00  0.0000000000000D+00  0.0000000000000D+00
431  4.3000000000000D+00  0.0000000000000D+00  0.0000000000000D+00
432  4.3100000000000D+00  0.0000000000000D+00  0.0000000000000D+00
433  4.3200000000000D+00  0.0000000000000D+00  0.0000000000000D+00
434  4.3300000000000D+00  0.0000000000000D+00  0.0000000000000D+00
435  4.3400000000000D+00  0.0000000000000D+00  0.0000000000000D+00
436  4.3500000000000D+00  0.0000000000000D+00  0.0000000000000D+00
437  4.3600000000000D+00  0.0000000000000D+00  0.0000000000000D+00
438  4.3700000000000D+00  0.0000000000000D+00  0.0000000000000D+00
439  4.3800000000000D+00  0.0000000000000D+00  0.0000000000000D+00
440  4.3900000000000D+00  0.0000000000000D+00  0.0000000000000D+00
441  4.4000000000000D+00  0.0000000000000D+00  0.0000000000000D+00
442  4.4100000000000D+00  0.0000000000000D+00  0.0000000000000D+00
443  4.4200000000000D+00  0.0000000000000D+00  0.0000000000000D+00