In    ONCVPSP-3.3.0  r_core=   1.60261   1.60261   1.70110
49.0000     21.0000      180430    zatom,zion,pspd
8 -116133   2     4   600     0    pspcod,pspxc,lmax,lloc,mmax,r2well
5.99000000  5.00000000  0.00000000    rchrg fchrg qchrg
2     4     2     0    nproj
3     1           extension_switch
4     4     0    nprojso
0                        -5.5193820608003D-01  8.4235377552970D+00
1  0.0000000000000D+00  5.5770267570754D-10  8.6983753533332D-11
2  1.0000000000000D-02  6.9619197587946D-03  8.9412336282683D-02
3  2.0000000000000D-02  1.3976348203324D-02  1.7857849730926D-01
4  3.0000000000000D-02  2.1095030609909D-02  2.6725301239366D-01
5  4.0000000000000D-02  2.8368196406597D-02  3.5519181934742D-01
6  5.0000000000000D-02  3.5843828531614D-02  4.4215296709948D-01
7  6.0000000000000D-02  4.3566965130142D-02  5.2789731629802D-01
8  7.0000000000000D-02  5.1579043706035D-02  6.1218923711753D-01
9  8.0000000000000D-02  5.9917297287389D-02  6.9479730340730D-01
10  9.0000000000000D-02  6.8614211480477D-02  7.7549498221160D-01
11  1.0000000000000D-01  7.7697050483933D-02  8.5406131756883D-01
12  1.1000000000000D-01  8.7187459223926D-02  9.3028160735896D-01
13  1.2000000000000D-01  9.7101147762483D-02  1.0039480718181D+00
14  1.3000000000000D-01  1.0744766303765D-01  1.0748605121787D+00
15  1.4000000000000D-01  1.1823025182891D-01  1.1428269577273D+00
16  1.5000000000000D-01  1.2944581761893D-01  1.2076642993989D+00
17  1.6000000000000D-01  1.4108497275792D-01  1.2691989078588D+00
18  1.7000000000000D-01  1.5313218604601D-01  1.3272672338498D+00
19  1.8000000000000D-01  1.6556602454700D-01  1.3817163884248D+00
20  1.9000000000000D-01  1.7835948715166D-01  1.4324047005273D+00
21  2.0000000000000D-01  1.9148042613437D-01  1.4792022492468D+00
22  2.1000000000000D-01  2.0489205171224D-01  1.5219913679489D+00
23  2.2000000000000D-01  2.1855351343390D-01  1.5606671173799D+00
24  2.3000000000000D-01  2.3242055111306D-01  1.5951377247615D+00
25  2.4000000000000D-01  2.4644620699386D-01  1.6253249858364D+00
26  2.5000000000000D-01  2.6058158990312D-01  1.6511646268006D+00
27  2.6000000000000D-01  2.7477668132366D-01  1.6726066230565D+00
28  2.7000000000000D-01  2.8898117262215D-01  1.6896154717611D+00
29  2.8000000000000D-01  3.0314532209529D-01  1.7021704152093D+00
30  2.9000000000000D-01  3.1722082006781D-01  1.7102656122000D+00
31  3.0000000000000D-01  3.3116164999153D-01  1.7139102546703D+00
32  3.1000000000000D-01  3.4492493336120D-01  1.7131286270649D+00
33  3.2000000000000D-01  3.5847174628424D-01  1.7079601061171D+00
34  3.3000000000000D-01  3.7176789571806D-01  1.6984590989726D+00
35  3.4000000000000D-01  3.8478464372103D-01  1.6846949178681D+00
36  3.5000000000000D-01  3.9749936854854D-01  1.6667515899002D+00
37  3.6000000000000D-01  4.0989615205930D-01  1.6447276007679D+00
38  3.7000000000000D-01  4.2196628367431D-01  1.6187355717542D+00
39  3.8000000000000D-01  4.3370867204266D-01  1.5889018696193D+00
40  3.9000000000000D-01  4.4513015660556D-01  1.5553661495112D+00
41  4.0000000000000D-01  4.5624571240158D-01  1.5182808314474D+00
42  4.1000000000000D-01  4.6707854270938D-01  1.4778105113956D+00
43  4.2000000000000D-01  4.7766005546447D-01  1.4341313084557D+00
44  4.3000000000000D-01  4.8802972079997D-01  1.3874301501394D+00
45  4.4000000000000D-01  4.9823480852965D-01  1.3379039982333D+00
46  4.5000000000000D-01  5.0833000589933D-01  1.2857590182207D+00
47  4.6000000000000D-01  5.1837691746111D-01  1.2312096957256D+00
48  4.7000000000000D-01  5.2844345045541D-01  1.1744779039104D+00
49  4.8000000000000D-01  5.3860309060063D-01  1.1157919262179D+00
50  4.9000000000000D-01  5.4893407467008D-01  1.0553854392823D+00
51  5.0000000000000D-01  5.5951846766201D-01  9.9349646124180D-01
52  5.1000000000000D-01  5.7044115372366D-01  9.3036627106193D-01
53  5.2000000000000D-01  5.8178875125635D-01  8.6623830482255D-01
54  5.3000000000000D-01  5.9364846378923D-01  8.0135703521971D-01
55  5.4000000000000D-01  6.0610687924799D-01  7.3596684079313D-01
56  5.5000000000000D-01  6.1924873114951D-01  6.7031087159932D-01
57  5.6000000000000D-01  6.3315563600796D-01  6.0462991820884D-01
58  5.7000000000000D-01  6.4790482183364D-01  5.3916129101223D-01
59  5.8000000000000D-01  6.6356786303190D-01  4.7413771686838D-01
60  5.9000000000000D-01  6.8020943725859D-01  4.0978626012110D-01
61  6.0000000000000D-01  6.9788611985469D-01  3.4632727494293D-01
62  6.1000000000000D-01  7.1664523136269D-01  2.8397339583917D-01
63  6.2000000000000D-01  7.3652375332064D-01  2.2292857295956D-01
64  6.3000000000000D-01  7.5754732703279D-01  1.6338715862027D-01
65  6.4000000000000D-01  7.7972934934198D-01  1.0553305113840D-01
66  6.5000000000000D-01  8.0307017856755D-01  4.9538901721798D-02
67  6.6000000000000D-01  8.2755646274713D-01 -4.4346102531443D-03
68  6.7000000000000D-01  8.5316060113454D-01 -5.6239428703265D-02
69  6.8000000000000D-01  8.7984034856307D-01 -1.0574069467777D-01
70  6.9000000000000D-01  9.0753857081096D-01 -1.5281723876228D-01
71  7.0000000000000D-01  9.3618315751423D-01 -1.9736198882387D-01
72  7.1000000000000D-01  9.6568709747132D-01 -2.3928229049589D-01
73  7.2000000000000D-01  9.9594871940121D-01 -2.7850013845203D-01
74  7.3000000000000D-01  1.0268520993716D+00 -3.1495231718944D-01
75  7.4000000000000D-01  1.0582676342196D+00 -3.4859045073020D-01
76  7.5000000000000D-01  1.0900527783771D+00 -3.7938096134611D-01
77  7.6000000000000D-01  1.1220529395980D+00 -4.0730493811311D-01
78  7.7000000000000D-01  1.1541025271903D+00 -4.3235791679965D-01
79  7.8000000000000D-01  1.1860261445138D+00 -4.5454957327888D-01
80  7.9000000000000D-01  1.2176399157240D+00 -4.7390333332612D-01
81  8.0000000000000D-01  1.2487529350524D+00 -4.9045590231018D-01
82  8.1000000000000D-01  1.2791688253342D+00 -5.0425671890584D-01
83  8.2000000000000D-01  1.3086873910454D+00 -5.1536733753747D-01
84  8.3000000000000D-01  1.3371063498114D+00 -5.2386074480599D-01
85  8.4000000000000D-01  1.3642231252132D+00 -5.2982061564752D-01
86  8.5000000000000D-01  1.3898366827675D+00 -5.3334051541620D-01
87  8.6000000000000D-01  1.4137493901958D+00 -5.3452305447347D-01
88  8.7000000000000D-01  1.4357688825500D+00 -5.3347900219540D-01
89  8.8000000000000D-01  1.4557099124238D+00 -5.3032636757737D-01
90  8.9000000000000D-01  1.4733961653656D+00 -5.2518945381714D-01
91  9.0000000000000D-01  1.4886620207210D+00 -5.1819789439258D-01
92  9.1000000000000D-01  1.5013542384737D+00 -5.0948567821685D-01
93  9.2000000000000D-01  1.5113335532156D+00 -4.9919017145127D-01
94  9.3000000000000D-01  1.5184761571687D+00 -4.8745114348547D-01
95  9.4000000000000D-01  1.5226750551818D+00 -4.7440980445517D-01
96  9.5000000000000D-01  1.5238412758351D+00 -4.6020786146261D-01
97  9.6000000000000D-01  1.5219049241900D+00 -4.4498660039583D-01
98  9.7000000000000D-01  1.5168160633001D+00 -4.2888599991350D-01
99  9.8000000000000D-01  1.5085454133703D+00 -4.1204388376851D-01
100  9.9000000000000D-01  1.4970848592973D+00 -3.9459511721427D-01
101  1.0000000000000D+00  1.4824477593825D+00 -3.7667085273791D-01
102  1.0100000000000D+00  1.4646690501184D+00 -3.5839782983421D-01
103  1.0200000000000D+00  1.4438051441359D+00 -3.3989773296657D-01
104  1.0300000000000D+00  1.4199336206553D+00 -3.2128661125869D-01
105  1.0400000000000D+00  1.3931527100810D+00 -3.0267436282908D-01
106  1.0500000000000D+00  1.3635805766527D+00 -2.8416428603662D-01
107  1.0600000000000D+00  1.3313544052496D+00 -2.6585269927131D-01
108  1.0700000000000D+00  1.2966293008047D+00 -2.4782863021730D-01
109  1.0800000000000D+00  1.2595770107695D+00 -2.3017357489717D-01
110  1.0900000000000D+00  1.2203844831939D+00 -2.1296132612725D-01
111  1.1000000000000D+00  1.1792522748126D+00 -1.9625787039849D-01
112  1.1100000000000D+00  1.1363928252660D+00 -1.8012135159819D-01
113  1.1200000000000D+00  1.0920286152892D+00 -1.6460209935106D-01
114  1.1300000000000D+00  1.0463902279532D+00 -1.4974271925952D-01
115  1.1400000000000D+00  9.9971433329095D-01 -1.3557824177293D-01
116  1.1500000000000D+00  9.5224161748529D-01 -1.2213632602797D-01
117  1.1600000000000D+00  9.0421467872528D-01 -1.0943751446378D-01
118  1.1700000000000D+00  8.5587591211304D-01 -9.7495533740174D-02
119  1.1800000000000D+00  8.0746540624261D-01 -8.6317637162058D-02
120  1.1900000000000D+00  7.5921887417816D-01 -7.5904983560363D-02
121  1.2000000000000D+00  7.1136564115045D-01 -6.6253047352945D-02
122  1.2100000000000D+00  6.6412671054213D-01 -5.7352054437751D-02
123  1.2200000000000D+00  6.1771292945964D-01 -4.9187438472629D-02
124  1.2300000000000D+00  5.7232327367824D-01 -4.1740312061708D-02
125  1.2400000000000D+00  5.2814327036862D-01 -3.4987947491955D-02
126  1.2500000000000D+00  4.8534357605986D-01 -2.8904261708704D-02
127  1.2600000000000D+00  4.4407872540037D-01 -2.3460300367189D-02
128  1.2700000000000D+00  4.0448606368188D-01 -1.8624716143269D-02
129  1.2800000000000D+00  3.6668487512824D-01 -1.4364236612639D-02
130  1.2900000000000D+00  3.3077571663268D-01 -1.0644117294316D-02
131  1.3000000000000D+00  2.9683996286549D-01 -7.4285760740593D-03
132  1.3100000000000D+00  2.6493956847238D-01 -4.6812052569906D-03
133  1.3200000000000D+00  2.3511704970712D-01 -2.3653580274793D-03
134  1.3300000000000D+00  2.0739568373786D-01 -4.4450688105434D-04
135  1.3400000000000D+00  1.8177992504093D-01  1.1174286433801D-03
136  1.3500000000000D+00  1.5825603273078D-01  2.3557865770571D-03
137  1.3600000000000D+00  1.3679290006156D-01  3.3049005214682D-03
138  1.3700000000000D+00  1.1734307956345D-01  3.9978726082098D-03
139  1.3800000000000D+00  9.9843988375068D-02  4.4663810912054D-03
140  1.3900000000000D+00  8.4219281596408D-02  4.7405228825011D-03
141  1.4000000000000D+00  7.0380378204595D-02  4.8486907199328D-03
142  1.4100000000000D+00  5.8228119766709D-02  4.8174834866374D-03
143  1.4200000000000D+00  4.7654545749726D-02  4.6716491676748D-03
144  1.4300000000000D+00  3.8544762628527D-02  4.4340581996750D-03
145  1.4400000000000D+00  3.0778886839816D-02  4.1257055628292D-03
146  1.4500000000000D+00  2.4234039058181D-02  3.7657395183569D-03
147  1.4600000000000D+00  1.8786370857322D-02  3.3715150914612D-03
148  1.4700000000000D+00  1.4313079991162D-02  2.9586651829926D-03
149  1.4800000000000D+00  1.0694470957685D-02  2.5412053383778D-03
150  1.4900000000000D+00  7.8157668724267D-03  2.1316031556103D-03
151  1.5000000000000D+00  5.5690772697334D-03  1.7409160891578D-03
152  1.5100000000000D+00  3.8560936350394D-03  1.3791281922612D-03
153  1.5200000000000D+00  2.5875541787229D-03  1.0547519512156D-03
154  1.5300000000000D+00  1.6822844554891D-03  7.7436364465803D-04
155  1.5400000000000D+00  1.0661943958616D-03  5.4211316732058D-04
156  1.5500000000000D+00  6.7148446083609D-04  3.5929029102275D-04
157  1.5600000000000D+00  4.3760231843892D-04  2.2447612917297D-04
158  1.5700000000000D+00  3.1000988213504D-04  1.3313025371207D-04
159  1.5800000000000D+00  2.5361336878301D-04  8.0124255082046D-05
160  1.5900000000000D+00  2.5137990498200D-04  5.9927900733077D-05
161  1.6000000000000D+00  2.4060686584684D-04  5.2083507646397D-05
162  1.6100000000000D+00  1.4403572739235D-04  3.0809746176545D-05
163  1.6200000000000D+00  1.8258718150179D-05  3.9241861356195D-06
164  1.6300000000000D+00 -2.4088744485469D-05 -5.0368259588204D-06
165  1.6400000000000D+00 -3.9529667352215D-06 -8.2537440045909D-07
166  1.6500000000000D+00  5.3788262418340D-06  1.1143188225969D-06
167  1.6600000000000D+00  7.6189885988450D-07  1.5745785537587D-07
168  1.6700000000000D+00 -6.4320714927122D-07 -1.3866953609934D-07
169  1.6800000000000D+00 -8.8751997188071D-08 -1.9134113002171D-08
170  1.6900000000000D+00  0.0000000000000D+00  0.0000000000000D+00
171  1.7000000000000D+00  0.0000000000000D+00  0.0000000000000D+00
172  1.7100000000000D+00  0.0000000000000D+00  0.0000000000000D+00
173  1.7200000000000D+00  0.0000000000000D+00  0.0000000000000D+00
174  1.7300000000000D+00  0.0000000000000D+00  0.0000000000000D+00
175  1.7400000000000D+00  0.0000000000000D+00  0.0000000000000D+00
176  1.7500000000000D+00  0.0000000000000D+00  0.0000000000000D+00
177  1.7600000000000D+00  0.0000000000000D+00  0.0000000000000D+00
178  1.7700000000000D+00  0.0000000000000D+00  0.0000000000000D+00
179  1.7800000000000D+00  0.0000000000000D+00  0.0000000000000D+00
180  1.7900000000000D+00  0.0000000000000D+00  0.0000000000000D+00
181  1.8000000000000D+00  0.0000000000000D+00  0.0000000000000D+00
182  1.8100000000000D+00  0.0000000000000D+00  0.0000000000000D+00
183  1.8200000000000D+00  0.0000000000000D+00  0.0000000000000D+00
184  1.8300000000000D+00  0.0000000000000D+00  0.0000000000000D+00
185  1.8400000000000D+00  0.0000000000000D+00  0.0000000000000D+00
186  1.8500000000000D+00  0.0000000000000D+00  0.0000000000000D+00
187  1.8600000000000D+00  0.0000000000000D+00  0.0000000000000D+00
188  1.8700000000000D+00  0.0000000000000D+00  0.0000000000000D+00
189  1.8800000000000D+00  0.0000000000000D+00  0.0000000000000D+00
190  1.8900000000000D+00  0.0000000000000D+00  0.0000000000000D+00
191  1.9000000000000D+00  0.0000000000000D+00  0.0000000000000D+00
192  1.9100000000000D+00  0.0000000000000D+00  0.0000000000000D+00
193  1.9200000000000D+00  0.0000000000000D+00  0.0000000000000D+00
194  1.9300000000000D+00  0.0000000000000D+00  0.0000000000000D+00
195  1.9400000000000D+00  0.0000000000000D+00  0.0000000000000D+00
196  1.9500000000000D+00  0.0000000000000D+00  0.0000000000000D+00
197  1.9600000000000D+00  0.0000000000000D+00  0.0000000000000D+00
198  1.9700000000000D+00  0.0000000000000D+00  0.0000000000000D+00
199  1.9800000000000D+00  0.0000000000000D+00  0.0000000000000D+00
200  1.9900000000000D+00  0.0000000000000D+00  0.0000000000000D+00
201  2.0000000000000D+00  0.0000000000000D+00  0.0000000000000D+00
202  2.0100000000000D+00  0.0000000000000D+00  0.0000000000000D+00
203  2.0200000000000D+00  0.0000000000000D+00  0.0000000000000D+00
204  2.0300000000000D+00  0.0000000000000D+00  0.0000000000000D+00
205  2.0400000000000D+00  0.0000000000000D+00  0.0000000000000D+00
206  2.0500000000000D+00  0.0000000000000D+00  0.0000000000000D+00
207  2.0600000000000D+00  0.0000000000000D+00  0.0000000000000D+00
208  2.0700000000000D+00  0.0000000000000D+00  0.0000000000000D+00
209  2.0800000000000D+00  0.0000000000000D+00  0.0000000000000D+00
210  2.0900000000000D+00  0.0000000000000D+00  0.0000000000000D+00
211  2.1000000000000D+00  0.0000000000000D+00  0.0000000000000D+00
212  2.1100000000000D+00  0.0000000000000D+00  0.0000000000000D+00
213  2.1200000000000D+00  0.0000000000000D+00  0.0000000000000D+00
214  2.1300000000000D+00  0.0000000000000D+00  0.0000000000000D+00
215  2.1400000000000D+00  0.0000000000000D+00  0.0000000000000D+00
216  2.1500000000000D+00  0.0000000000000D+00  0.0000000000000D+00
217  2.1600000000000D+00  0.0000000000000D+00  0.0000000000000D+00
218  2.1700000000000D+00  0.0000000000000D+00  0.0000000000000D+00
219  2.1800000000000D+00  0.0000000000000D+00  0.0000000000000D+00
220  2.1900000000000D+00  0.0000000000000D+00  0.0000000000000D+00
221  2.2000000000000D+00  0.0000000000000D+00  0.0000000000000D+00
222  2.2100000000000D+00  0.0000000000000D+00  0.0000000000000D+00
223  2.2200000000000D+00  0.0000000000000D+00  0.0000000000000D+00
224  2.2300000000000D+00  0.0000000000000D+00  0.0000000000000D+00
225  2.2400000000000D+00  0.0000000000000D+00  0.0000000000000D+00
226  2.2500000000000D+00  0.0000000000000D+00  0.0000000000000D+00
227  2.2600000000000D+00  0.0000000000000D+00  0.0000000000000D+00
228  2.2700000000000D+00  0.0000000000000D+00  0.0000000000000D+00
229  2.2800000000000D+00  0.0000000000000D+00  0.0000000000000D+00
230  2.2900000000000D+00  0.0000000000000D+00  0.0000000000000D+00
231  2.3000000000000D+00  0.0000000000000D+00  0.0000000000000D+00
232  2.3100000000000D+00  0.0000000000000D+00  0.0000000000000D+00
233  2.3200000000000D+00  0.0000000000000D+00  0.0000000000000D+00
234  2.3300000000000D+00  0.0000000000000D+00  0.0000000000000D+00
235  2.3400000000000D+00  0.0000000000000D+00  0.0000000000000D+00
236  2.3500000000000D+00  0.0000000000000D+00  0.0000000000000D+00
237  2.3600000000000D+00  0.0000000000000D+00  0.0000000000000D+00
238  2.3700000000000D+00  0.0000000000000D+00  0.0000000000000D+00
239  2.3800000000000D+00  0.0000000000000D+00  0.0000000000000D+00
240  2.3900000000000D+00  0.0000000000000D+00  0.0000000000000D+00
241  2.4000000000000D+00  0.0000000000000D+00  0.0000000000000D+00
242  2.4100000000000D+00  0.0000000000000D+00  0.0000000000000D+00
243  2.4200000000000D+00  0.0000000000000D+00  0.0000000000000D+00
244  2.4300000000000D+00  0.0000000000000D+00  0.0000000000000D+00
245  2.4400000000000D+00  0.0000000000000D+00  0.0000000000000D+00
246  2.4500000000000D+00  0.0000000000000D+00  0.0000000000000D+00
247  2.4600000000000D+00  0.0000000000000D+00  0.0000000000000D+00
248  2.4700000000000D+00  0.0000000000000D+00  0.0000000000000D+00
249  2.4800000000000D+00  0.0000000000000D+00  0.0000000000000D+00
250  2.4900000000000D+00  0.0000000000000D+00  0.0000000000000D+00
251  2.5000000000000D+00  0.0000000000000D+00  0.0000000000000D+00
252  2.5100000000000D+00  0.0000000000000D+00  0.0000000000000D+00
253  2.5200000000000D+00  0.0000000000000D+00  0.0000000000000D+00
254  2.5300000000000D+00  0.0000000000000D+00  0.0000000000000D+00
255  2.5400000000000D+00  0.0000000000000D+00  0.0000000000000D+00
256  2.5500000000000D+00  0.0000000000000D+00  0.0000000000000D+00
257  2.5600000000000D+00  0.0000000000000D+00  0.0000000000000D+00
258  2.5700000000000D+00  0.0000000000000D+00  0.0000000000000D+00
259  2.5800000000000D+00  0.0000000000000D+00  0.0000000000000D+00
260  2.5900000000000D+00  0.0000000000000D+00  0.0000000000000D+00
261  2.6000000000000D+00  0.0000000000000D+00  0.0000000000000D+00
262  2.6100000000000D+00  0.0000000000000D+00  0.0000000000000D+00
263  2.6200000000000D+00  0.0000000000000D+00  0.0000000000000D+00
264  2.6300000000000D+00  0.0000000000000D+00  0.0000000000000D+00
265  2.6400000000000D+00  0.0000000000000D+00  0.0000000000000D+00
266  2.6500000000000D+00  0.0000000000000D+00  0.0000000000000D+00
267  2.6600000000000D+00  0.0000000000000D+00  0.0000000000000D+00
268  2.6700000000000D+00  0.0000000000000D+00  0.0000000000000D+00
269  2.6800000000000D+00  0.0000000000000D+00  0.0000000000000D+00
270  2.6900000000000D+00  0.0000000000000D+00  0.0000000000000D+00
271  2.7000000000000D+00  0.0000000000000D+00  0.0000000000000D+00
272  2.7100000000000D+00  0.0000000000000D+00  0.0000000000000D+00
273  2.7200000000000D+00  0.0000000000000D+00  0.0000000000000D+00
274  2.7300000000000D+00  0.0000000000000D+00  0.0000000000000D+00
275  2.7400000000000D+00  0.0000000000000D+00  0.0000000000000D+00
276  2.7500000000000D+00  0.0000000000000D+00  0.0000000000000D+00
277  2.7600000000000D+00  0.0000000000000D+00  0.0000000000000D+00
278  2.7700000000000D+00  0.0000000000000D+00  0.0000000000000D+00
279  2.7800000000000D+00  0.0000000000000D+00  0.0000000000000D+00
280  2.7900000000000D+00  0.0000000000000D+00  0.0000000000000D+00
281  2.8000000000000D+00  0.0000000000000D+00  0.0000000000000D+00
282  2.8100000000000D+00  0.0000000000000D+00  0.0000000000000D+00
283  2.8200000000000D+00  0.0000000000000D+00  0.0000000000000D+00
284  2.8300000000000D+00  0.0000000000000D+00  0.0000000000000D+00
285  2.8400000000000D+00  0.0000000000000D+00  0.0000000000000D+00
286  2.8500000000000D+00  0.0000000000000D+00  0.0000000000000D+00
287  2.8600000000000D+00  0.0000000000000D+00  0.0000000000000D+00
288  2.8700000000000D+00  0.0000000000000D+00  0.0000000000000D+00
289  2.8800000000000D+00  0.0000000000000D+00  0.0000000000000D+00
290  2.8900000000000D+00  0.0000000000000D+00  0.0000000000000D+00
291  2.9000000000000D+00  0.0000000000000D+00  0.0000000000000D+00
292  2.9100000000000D+00  0.0000000000000D+00  0.0000000000000D+00
293  2.9200000000000D+00  0.0000000000000D+00  0.0000000000000D+00
294  2.9300000000000D+00  0.0000000000000D+00  0.0000000000000D+00
295  2.9400000000000D+00  0.0000000000000D+00  0.0000000000000D+00
296  2.9500000000000D+00  0.0000000000000D+00  0.0000000000000D+00
297  2.9600000000000D+00  0.0000000000000D+00  0.0000000000000D+00
298  2.9700000000000D+00  0.0000000000000D+00  0.0000000000000D+00
299  2.9800000000000D+00  0.0000000000000D+00  0.0000000000000D+00
300  2.9900000000000D+00  0.0000000000000D+00  0.0000000000000D+00
301  3.0000000000000D+00  0.0000000000000D+00  0.0000000000000D+00
302  3.0100000000000D+00  0.0000000000000D+00  0.0000000000000D+00
303  3.0200000000000D+00  0.0000000000000D+00  0.0000000000000D+00
304  3.0300000000000D+00  0.0000000000000D+00  0.0000000000000D+00
305  3.0400000000000D+00  0.0000000000000D+00  0.0000000000000D+00
306  3.0500000000000D+00  0.0000000000000D+00  0.0000000000000D+00
307  3.0600000000000D+00  0.0000000000000D+00  0.0000000000000D+00
308  3.0700000000000D+00  0.0000000000000D+00  0.0000000000000D+00
309  3.0800000000000D+00  0.0000000000000D+00  0.0000000000000D+00
310  3.0900000000000D+00  0.0000000000000D+00  0.0000000000000D+00
311  3.1000000000000D+00  0.0000000000000D+00  0.0000000000000D+00
312  3.1100000000000D+00  0.0000000000000D+00  0.0000000000000D+00
313  3.1200000000000D+00  0.0000000000000D+00  0.0000000000000D+00
314  3.1300000000000D+00  0.0000000000000D+00  0.0000000000000D+00
315  3.1400000000000D+00  0.0000000000000D+00  0.0000000000000D+00
316  3.1500000000000D+00  0.0000000000000D+00  0.0000000000000D+00
317  3.1600000000000D+00  0.0000000000000D+00  0.0000000000000D+00
318  3.1700000000000D+00  0.0000000000000D+00  0.0000000000000D+00
319  3.1800000000000D+00  0.0000000000000D+00  0.0000000000000D+00
320  3.1900000000000D+00  0.0000000000000D+00  0.0000000000000D+00
321  3.2000000000000D+00  0.0000000000000D+00  0.0000000000000D+00
322  3.2100000000000D+00  0.0000000000000D+00  0.0000000000000D+00
323  3.2200000000000D+00  0.0000000000000D+00  0.0000000000000D+00
324  3.2300000000000D+00  0.0000000000000D+00  0.0000000000000D+00
325  3.2400000000000D+00  0.0000000000000D+00  0.0000000000000D+00
326  3.2500000000000D+00  0.0000000000000D+00  0.0000000000000D+00
327  3.2600000000000D+00  0.0000000000000D+00  0.0000000000000D+00
328  3.2700000000000D+00  0.0000000000000D+00  0.0000000000000D+00
329  3.2800000000000D+00  0.0000000000000D+00  0.0000000000000D+00
330  3.2900000000000D+00  0.0000000000000D+00  0.0000000000000D+00
331  3.3000000000000D+00  0.0000000000000D+00  0.0000000000000D+00
332  3.3100000000000D+00  0.0000000000000D+00  0.0000000000000D+00
333  3.3200000000000D+00  0.0000000000000D+00  0.0000000000000D+00
334  3.3300000000000D+00  0.0000000000000D+00  0.0000000000000D+00
335  3.3400000000000D+00  0.0000000000000D+00  0.0000000000000D+00
336  3.3500000000000D+00  0.0000000000000D+00  0.0000000000000D+00
337  3.3600000000000D+00  0.0000000000000D+00  0.0000000000000D+00
338  3.3700000000000D+00  0.0000000000000D+00  0.0000000000000D+00
339  3.3800000000000D+00  0.0000000000000D+00  0.0000000000000D+00
340  3.3900000000000D+00  0.0000000000000D+00  0.0000000000000D+00
341  3.4000000000000D+00  0.0000000000000D+00  0.0000000000000D+00
342  3.4100000000000D+00  0.0000000000000D+00  0.0000000000000D+00
343  3.4200000000000D+00  0.0000000000000D+00  0.0000000000000D+00
344  3.4300000000000D+00  0.0000000000000D+00  0.0000000000000D+00
345  3.4400000000000D+00  0.0000000000000D+00  0.0000000000000D+00
346  3.4500000000000D+00  0.0000000000000D+00  0.0000000000000D+00
347  3.4600000000000D+00  0.0000000000000D+00  0.0000000000000D+00
348  3.4700000000000D+00  0.0000000000000D+00  0.0000000000000D+00
349  3.4800000000000D+00  0.0000000000000D+00  0.0000000000000D+00
350  3.4900000000000D+00  0.0000000000000D+00  0.0000000000000D+00
351  3.5000000000000D+00  0.0000000000000D+00  0.0000000000000D+00
352  3.5100000000000D+00  0.0000000000000D+00  0.0000000000000D+00
353  3.5200000000000D+00  0.0000000000000D+00  0.0000000000000D+00
354  3.5300000000000D+00  0.0000000000000D+00  0.0000000000000D+00
355  3.5400000000000D+00  0.0000000000000D+00  0.0000000000000D+00
356  3.5500000000000D+00  0.0000000000000D+00  0.0000000000000D+00
357  3.5600000000000D+00  0.0000000000000D+00  0.0000000000000D+00
358  3.5700000000000D+00  0.0000000000000D+00  0.0000000000000D+00
359  3.5800000000000D+00  0.0000000000000D+00  0.0000000000000D+00
360  3.5900000000000D+00  0.0000000000000D+00  0.0000000000000D+00
361  3.6000000000000D+00  0.0000000000000D+00  0.0000000000000D+00
362  3.6100000000000D+00  0.0000000000000D+00  0.0000000000000D+00
363  3.6200000000000D+00  0.0000000000000D+00  0.0000000000000D+00
364  3.6300000000000D+00  0.0000000000000D+00  0.0000000000000D+00
365  3.6400000000000D+00  0.0000000000000D+00  0.0000000000000D+00
366  3.6500000000000D+00  0.0000000000000D+00  0.0000000000000D+00
367  3.6600000000000D+00  0.0000000000000D+00  0.0000000000000D+00
368  3.6700000000000D+00  0.0000000000000D+00  0.0000000000000D+00
369  3.6800000000000D+00  0.0000000000000D+00  0.0000000000000D+00
370  3.6900000000000D+00  0.0000000000000D+00  0.0000000000000D+00
371  3.7000000000000D+00  0.0000000000000D+00  0.0000000000000D+00
372  3.7100000000000D+00  0.0000000000000D+00  0.0000000000000D+00
373  3.7200000000000D+00  0.0000000000000D+00  0.0000000000000D+00
374  3.7300000000000D+00  0.0000000000000D+00  0.0000000000000D+00
375  3.7400000000000D+00  0.0000000000000D+00  0.0000000000000D+00
376  3.7500000000000D+00  0.0000000000000D+00  0.0000000000000D+00
377  3.7600000000000D+00  0.0000000000000D+00  0.0000000000000D+00
378  3.7700000000000D+00  0.0000000000000D+00  0.0000000000000D+00
379  3.7800000000000D+00  0.0000000000000D+00  0.0000000000000D+00
380  3.7900000000000D+00  0.0000000000000D+00  0.0000000000000D+00
381  3.8000000000000D+00  0.0000000000000D+00  0.0000000000000D+00
382  3.8100000000000D+00  0.0000000000000D+00  0.0000000000000D+00
383  3.8200000000000D+00  0.0000000000000D+00  0.0000000000000D+00
384  3.8300000000000D+00  0.0000000000000D+00  0.0000000000000D+00
385  3.8400000000000D+00  0.0000000000000D+00  0.0000000000000D+00
386  3.8500000000000D+00  0.0000000000000D+00  0.0000000000000D+00
387  3.8600000000000D+00  0.0000000000000D+00  0.0000000000000D+00
388  3.8700000000000D+00  0.0000000000000D+00  0.0000000000000D+00
389  3.8800000000000D+00  0.0000000000000D+00  0.0000000000000D+00
390  3.8900000000000D+00  0.0000000000000D+00  0.0000000000000D+00
391  3.9000000000000D+00  0.0000000000000D+00  0.0000000000000D+00
392  3.9100000000000D+00  0.0000000000000D+00  0.0000000000000D+00
393  3.9200000000000D+00  0.0000000000000D+00  0.0000000000000D+00
394  3.9300000000000D+00  0.0000000000000D+00  0.0000000000000D+00
395  3.9400000000000D+00  0.0000000000000D+00  0.0000000000000D+00
396  3.9500000000000D+00  0.0000000000000D+00  0.0000000000000D+00
397  3.9600000000000D+00  0.0000000000000D+00  0.0000000000000D+00
398  3.9700000000000D+00  0.0000000000000D+00  0.0000000000000D+00
399  3.9800000000000D+00  0.0000000000000D+00  0.0000000000000D+00
400  3.9900000000000D+00  0.0000000000000D+00  0.0000000000000D+00
401  4.0000000000000D+00  0.0000000000000D+00  0.0000000000000D+00
402  4.0100000000000D+00  0.0000000000000D+00  0.0000000000000D+00
403  4.0200000000000D+00  0.0000000000000D+00  0.0000000000000D+00
404  4.0300000000000D+00  0.0000000000000D+00  0.0000000000000D+00
405  4.0400000000000D+00  0.0000000000000D+00  0.0000000000000D+00
406  4.0500000000000D+00  0.0000000000000D+00  0.0000000000000D+00
407  4.0600000000000D+00  0.0000000000000D+00  0.0000000000000D+00
408  4.0700000000000D+00  0.0000000000000D+00  0.0000000000000D+00
409  4.0800000000000D+00  0.0000000000000D+00  0.0000000000000D+00
410  4.0900000000000D+00  0.0000000000000D+00  0.0000000000000D+00
411  4.1000000000000D+00  0.0000000000000D+00  0.0000000000000D+00
412  4.1100000000000D+00  0.0000000000000D+00  0.0000000000000D+00
413  4.1200000000000D+00  0.0000000000000D+00  0.0000000000000D+00
414  4.1300000000000D+00  0.0000000000000D+00  0.0000000000000D+00
415  4.1400000000000D+00  0.0000000000000D+00  0.0000000000000D+00
416  4.1500000000000D+00  0.0000000000000D+00  0.0000000000000D+00
417  4.1600000000000D+00  0.0000000000000D+00  0.0000000000000D+00
418  4.1700000000000D+00  0.0000000000000D+00  0.0000000000000D+00
419  4.1800000000000D+00  0.0000000000000D+00  0.0000000000000D+00
420  4.1900000000000D+00  0.0000000000000D+00  0.0000000000000D+00
421  4.2000000000000D+00  0.0000000000000D+00  0.0000000000000D+00
422  4.2100000000000D+00  0.0000000000000D+00  0.0000000000000D+00
423  4.2200000000000D+00  0.0000000000000D+00  0.0000000000000D+00
424  4.2300000000000D+00  0.0000000000000D+00  0.0000000000000D+00
425  4.2400000000000D+00  0.0000000000000D+00  0.0000000000000D+00
426  4.2500000000000D+00  0.0000000000000D+00  0.0000000000000D+00
427  4.2600000000000D+00  0.0000000000000D+00  0.0000000000000D+00
428  4.2700000000000D+00  0.0000000000000D+00  0.0000000000000D+00
429  4.2800000000000D+00  0.0000000000000D+00  0.0000000000000D+00
430  4.2900000000000D+00  0.0000000000000D+00  0.0000000000000D+00
431  4.3000000000000D+00  0.0000000000000D+00  0.0000000000000D+00
432  4.3100000000000D+00  0.0000000000000D+00  0.0000000000000D+00
433  4.3200000000000D+00  0.0000000000000D+00  0.0000000000000D+00
434  4.3300000000000D+00  0.0000000000000D+00  0.0000000000000D+00
435  4.3400000000000D+00  0.0000000000000D+00  0.0000000000000D+00
436  4.3500000000000D+00  0.0000000000000D+00  0.0000000000000D+00
437  4.3600000000000D+00  0.0000000000000D+00  0.0000000000000D+00
438  4.3700000000000D+00  0.0000000000000D+00  0.0000000000000D+00
439  4.3800000000000D+00  0.0000000000000D+00  0.0000000000000D+00
440  4.3900000000000D+00  0.0000000000000D+00  0.0000000000000D+00
441  4.4000000000000D+00  0.0000000000000D+00  0.0000000000000D+00
442  4.4100000000000D+00  0.0000000000000D+00  0.0000000000000D+00
443  4.4200000000000D+00  0.0000000000000D+00  0.0000000000000D+00