K     ONCVPSP-3.3.0  r_core=   1.36296   1.46408   1.61068
19.0000      9.0000      180429    zatom,zion,pspd
8 -116133   2     4   400     0    pspcod,pspxc,lmax,lloc,mmax,r2well
3.99000000  5.00000000  0.00000000    rchrg fchrg qchrg
2     3     2     0    nproj
3     1           extension_switch
3     4     0    nprojso
0                         8.1626133089497D-01  1.0920136168797D+01
1  0.0000000000000D+00  1.8094131748470D-10  1.1022938117833D-10
2  1.0000000000000D-02 -3.1834327702624D-02  5.7923844360272D-02
3  2.0000000000000D-02 -6.3569207711399D-02  1.1577881321038D-01
4  3.0000000000000D-02 -9.5105369409373D-02  1.7349592529001D-01
5  4.0000000000000D-02 -1.2634389479787D-01  2.3100599037375D-01
6  5.0000000000000D-02 -1.5718639101481D-01  2.8823951109841D-01
7  6.0000000000000D-02 -1.8753515843695D-01  3.4512659228316D-01
8  7.0000000000000D-02 -2.1729335311279D-01  4.0159686010958D-01
9  8.0000000000000D-02 -2.4636514245389D-01  4.5757939341838D-01
10  9.0000000000000D-02 -2.7465585333179D-01  5.1300266924414D-01
11  1.0000000000000D-01 -3.0207211197948D-01  5.6779452455012D-01
12  1.1000000000000D-01 -3.2852197537635D-01  6.2188213594341D-01
13  1.2000000000000D-01 -3.5391505409595D-01  6.7519201894936D-01
14  1.3000000000000D-01 -3.7816262691137D-01  7.2765004820376D-01
15  1.4000000000000D-01 -4.0117774777513D-01  7.7918149968632D-01
16  1.5000000000000D-01 -4.2287534611221D-01  8.2971111586947D-01
17  1.6000000000000D-01 -4.4317232167883D-01  8.7916319439757D-01
18  1.7000000000000D-01 -4.6198763553691D-01  9.2746170064397D-01
19  1.8000000000000D-01 -4.7924239896787D-01  9.7453040422097D-01
20  1.9000000000000D-01 -4.9485996239331D-01  1.0202930392435D+00
21  2.0000000000000D-01 -5.0876600657366D-01  1.0646734878730D+00
22  2.1000000000000D-01 -5.2088863851690D-01  1.1075959863980D+00
23  2.2000000000000D-01 -5.3115849463918D-01  1.1489853528446D+00
24  2.3000000000000D-01 -5.3950885377333D-01  1.1887672348531D+00
25  2.4000000000000D-01 -5.4587576261614D-01  1.2268683763175D+00
26  2.5000000000000D-01 -5.5019817613717D-01  1.2632169010524D+00
27  2.6000000000000D-01 -5.5241811533981D-01  1.2977426115418D+00
28  2.7000000000000D-01 -5.5248084456601D-01  1.3303773006299D+00
29  2.8000000000000D-01 -5.5033507027295D-01  1.3610550738405D+00
30  2.9000000000000D-01 -5.4593316288201D-01  1.3897126798629D+00
31  3.0000000000000D-01 -5.3923140291174D-01  1.4162898466125D+00
32  3.1000000000000D-01 -5.3019025216026D-01  1.4407296201752D+00
33  3.2000000000000D-01 -5.1877465020452D-01  1.4629787038652D+00
34  3.3000000000000D-01 -5.0495433594052D-01  1.4829877945793D+00
35  3.4000000000000D-01 -4.8870419330575D-01  1.5007119136052D+00
36  3.5000000000000D-01 -4.7000461971380D-01  1.5161107290459D+00
37  3.6000000000000D-01 -4.4884191509737D-01  1.5291488670516D+00
38  3.7000000000000D-01 -4.2520868881298D-01  1.5397962091084D+00
39  3.8000000000000D-01 -3.9910428101595D-01  1.5480281727126D+00
40  3.9000000000000D-01 -3.7053519448169D-01  1.5538259728643D+00
41  4.0000000000000D-01 -3.3951553223682D-01  1.5571768619448D+00
42  4.1000000000000D-01 -3.0606743578717D-01  1.5580743456900D+00
43  4.2000000000000D-01 -2.7022151819497D-01  1.5565183731394D+00
44  4.3000000000000D-01 -2.3201728578023D-01  1.5525154986322D+00
45  4.4000000000000D-01 -1.9150354180993D-01  1.5460790141182D+00
46  4.5000000000000D-01 -1.4873876520223D-01  1.5372290502721D+00
47  4.6000000000000D-01 -1.0379145702309D-01  1.5259926451241D+00
48  4.7000000000000D-01 -5.6740447394532D-02  1.5124037791567D+00
49  4.8000000000000D-01 -7.6751553771207D-03  1.4965033760605D+00
50  4.9000000000000D-01  4.3304205562903D-02  1.4783392685864D+00
51  5.0000000000000D-01  9.6086483733258D-02  1.4579661291837D+00
52  5.1000000000000D-01  1.5054951400227D-01  1.4354453653571D+00
53  5.2000000000000D-01  2.0656011776889D-01  1.4108449799244D+00
54  5.3000000000000D-01  2.6397418419486D-01  1.3842393965950D+00
55  5.4000000000000D-01  3.2263683817033D-01  1.3557092515229D+00
56  5.5000000000000D-01  3.8238269976954D-01  1.3253411517136D+00
57  5.6000000000000D-01  4.4303623913914D-01  1.2932274013770D+00
58  5.7000000000000D-01  5.0441222985194D-01  1.2594656975233D+00
59  5.8000000000000D-01  5.6631630276954D-01  1.2241587962848D+00
60  5.9000000000000D-01  6.2854560138810D-01  1.1874141516251D+00
61  6.0000000000000D-01  6.9088953851850D-01  1.1493435282544D+00
62  6.1000000000000D-01  7.5313065297285D-01  1.1100625907152D+00
63  6.2000000000000D-01  8.1504556372261D-01  1.0696904707307D+00
64  6.3000000000000D-01  8.7640601776490D-01  1.0283493150168D+00
65  6.4000000000000D-01  9.3698002669914D-01  9.8616381585903D-01
66  6.5000000000000D-01  9.9653308580329D-01  9.4326072682773D-01
67  6.6000000000000D-01  1.0548294682044D+00  8.9976836607217D-01
68  6.7000000000000D-01  1.1116335855971D+00  8.5581610967902D-01
69  6.8000000000000D-01  1.1667114058836D+00  8.1153387761325D-01
70  6.9000000000000D-01  1.2198319171030D+00  7.6705161477726D-01
71  7.0000000000000D-01  1.2707686261042D+00  7.2249876972948D-01
72  7.1000000000000D-01  1.3193010796140D+00  6.7800377359572D-01
73  7.2000000000000D-01  1.3652163946583D+00  6.3369352168819D-01
74  7.3000000000000D-01  1.4083107847406D+00  5.8969286031859D-01
75  7.4000000000000D-01  1.4483910677540D+00  5.4612408125384D-01
76  7.5000000000000D-01  1.4852761413319D+00  5.0310642621723D-01
77  7.6000000000000D-01  1.5187984112152D+00  4.6075560378594D-01
78  7.7000000000000D-01  1.5488051582441D+00  4.1918332097665D-01
79  7.8000000000000D-01  1.5751598297672D+00  3.7849683174838D-01
80  7.9000000000000D-01  1.5977432416006D+00  3.3879850458437D-01
81  8.0000000000000D-01  1.6164546771591D+00  3.0018541124379D-01
82  8.1000000000000D-01  1.6312128710212D+00  2.6274893870142D-01
83  8.2000000000000D-01  1.6419568649619D+00  2.2657442621785D-01
84  8.3000000000000D-01  1.6486467253911D+00  1.9174082940626D-01
85  8.4000000000000D-01  1.6512641121583D+00  1.5832041308338D-01
86  8.5000000000000D-01  1.6498126898036D+00  1.2637847461320D-01
87  8.6000000000000D-01  1.6443183735534D+00  9.5973099371804D-02
88  8.7000000000000D-01  1.6348294036381D+00  6.7154949880059D-02
89  8.8000000000000D-01  1.6214162428521D+00  3.9967090068982D-02
90  8.9000000000000D-01  1.6041712936513D+00  1.4444846058248D-02
91  9.0000000000000D-01  1.5832084324743D+00 -9.3842952569035D-03
92  9.1000000000000D-01  1.5586623603670D+00 -3.1500748602684D-02
93  9.2000000000000D-01  1.5306877703559D+00 -5.1892852589884D-02
94  9.3000000000000D-01  1.4994583333485D+00 -7.0556850817876D-02
95  9.4000000000000D-01  1.4651655056070D+00 -8.7496830890379D-02
96  9.5000000000000D-01  1.4280171620333D+00 -1.0272462051272D-01
97  9.6000000000000D-01  1.3882360606029D+00 -1.1625963994353D-01
98  9.7000000000000D-01  1.3460581442842D+00 -1.2812871018175D-01
99  9.8000000000000D-01  1.3017306876429D+00 -1.3836581638091D-01
100  9.9000000000000D-01  1.2555102960713D+00 -1.4701182609886D-01
101  1.0000000000000D+00  1.2076607661796D+00 -1.5411416211167D-01
102  1.0100000000000D+00  1.1584508163283D+00 -1.5972642964472D-01
103  1.0200000000000D+00  1.1081516965735D+00 -1.6390799800586D-01
104  1.0300000000000D+00  1.0570346874269D+00 -1.6672353673124D-01
105  1.0400000000000D+00  1.0053684968174D+00 -1.6824250649713D-01
106  1.0500000000000D+00  9.5341656445268D-01 -1.6853860518576D-01
107  1.0600000000000D+00  9.0143428245698D-01 -1.6768916963217D-01
108  1.0700000000000D+00  8.4966614067811D-01 -1.6577453372227D-01
109  1.0800000000000D+00  7.9834279828152D-01 -1.6287734307820D-01
110  1.0900000000000D+00  7.4767810131516D-01 -1.5908182812576D-01
111  1.1000000000000D+00  6.9786615284428D-01 -1.5447304808468D-01
112  1.1100000000000D+00  6.4907802708757D-01 -1.4913606243411D-01
113  1.1200000000000D+00  6.0145851504843D-01 -1.4315507783759D-01
114  1.1300000000000D+00  5.5513182309988D-01 -1.3661339110194D-01
115  1.1400000000000D+00  5.1020940420525D-01 -1.2959368673450D-01
116  1.1500000000000D+00  4.6679480140246D-01 -1.2217816799863D-01
117  1.1600000000000D+00  4.2498222321117D-01 -1.1444815616175D-01
118  1.1700000000000D+00  3.8485694732511D-01 -1.0648383290731D-01
119  1.1800000000000D+00  3.4649534283974D-01 -9.8363949323449D-02
120  1.1900000000000D+00  3.0996507394715D-01 -9.0165547249117D-02
121  1.2000000000000D+00  2.7532534723613D-01 -8.1963683523438D-02
122  1.2100000000000D+00  2.4262722904540D-01 -7.3831161077568D-02
123  1.2200000000000D+00  2.1191401936137D-01 -6.5838267540159D-02
124  1.2300000000000D+00  1.8322167316011D-01 -5.8052522410655D-02
125  1.2400000000000D+00  1.5657925956326D-01 -5.0538433845636D-02
126  1.2500000000000D+00  1.3200944836462D-01 -4.3357266045890D-02
127  1.2600000000000D+00  1.0952901364457D-01 -3.6566818194116D-02
128  1.2700000000000D+00  8.9149343903799D-02 -3.0221215877431D-02
129  1.2800000000000D+00  7.0876948164966D-02 -2.4370715853763D-02
130  1.2900000000000D+00  5.4713948150939D-02 -1.9061524952327D-02
131  1.3000000000000D+00  4.0658546478844D-02 -1.4335633896726D-02
132  1.3100000000000D+00  2.8705461704381D-02 -1.0230666721319D-02
133  1.3200000000000D+00  1.8850768016954D-02 -6.7813965338323D-03
134  1.3300000000000D+00  1.1071131225214D-02 -4.0117928881174D-03
135  1.3400000000000D+00  5.3279144002300D-03 -1.9364910880743D-03
136  1.3500000000000D+00  1.7622299471632D-03 -6.3168020623871D-04
137  1.3600000000000D+00  1.8707396042816D-04 -5.0166677438926D-05
138  1.3700000000000D+00 -1.3165988477637D-04  5.9622548684250D-05
139  1.3800000000000D+00  7.0427052467158D-06 -2.9907733482738D-06
140  1.3900000000000D+00  3.4528221446100D-05 -1.4365703946200D-05
141  1.4000000000000D+00 -5.7102655680121D-06  2.4427188213806D-06
142  1.4100000000000D+00 -3.3487008439883D-06  1.4181926330970D-06
143  1.4200000000000D+00  1.4887557915573D-10 -5.1052153137746D-08
144  1.4300000000000D+00  0.0000000000000D+00  0.0000000000000D+00
145  1.4400000000000D+00  0.0000000000000D+00  0.0000000000000D+00
146  1.4500000000000D+00  0.0000000000000D+00  0.0000000000000D+00
147  1.4600000000000D+00  0.0000000000000D+00  0.0000000000000D+00
148  1.4700000000000D+00  0.0000000000000D+00  0.0000000000000D+00
149  1.4800000000000D+00  0.0000000000000D+00  0.0000000000000D+00
150  1.4900000000000D+00  0.0000000000000D+00  0.0000000000000D+00
151  1.5000000000000D+00  0.0000000000000D+00  0.0000000000000D+00
152  1.5100000000000D+00  0.0000000000000D+00  0.0000000000000D+00
153  1.5200000000000D+00  0.0000000000000D+00  0.0000000000000D+00
154  1.5300000000000D+00  0.0000000000000D+00  0.0000000000000D+00
155  1.5400000000000D+00  0.0000000000000D+00  0.0000000000000D+00
156  1.5500000000000D+00  0.0000000000000D+00  0.0000000000000D+00
157  1.5600000000000D+00  0.0000000000000D+00  0.0000000000000D+00
158  1.5700000000000D+00  0.0000000000000D+00  0.0000000000000D+00
159  1.5800000000000D+00  0.0000000000000D+00  0.0000000000000D+00
160  1.5900000000000D+00  0.0000000000000D+00  0.0000000000000D+00
161  1.6000000000000D+00  0.0000000000000D+00  0.0000000000000D+00
162  1.6100000000000D+00  0.0000000000000D+00  0.0000000000000D+00
163  1.6200000000000D+00  0.0000000000000D+00  0.0000000000000D+00
164  1.6300000000000D+00  0.0000000000000D+00  0.0000000000000D+00
165  1.6400000000000D+00  0.0000000000000D+00  0.0000000000000D+00
166  1.6500000000000D+00  0.0000000000000D+00  0.0000000000000D+00
167  1.6600000000000D+00  0.0000000000000D+00  0.0000000000000D+00
168  1.6700000000000D+00  0.0000000000000D+00  0.0000000000000D+00
169  1.6800000000000D+00  0.0000000000000D+00  0.0000000000000D+00
170  1.6900000000000D+00  0.0000000000000D+00  0.0000000000000D+00
171  1.7000000000000D+00  0.0000000000000D+00  0.0000000000000D+00
172  1.7100000000000D+00  0.0000000000000D+00  0.0000000000000D+00
173  1.7200000000000D+00  0.0000000000000D+00  0.0000000000000D+00
174  1.7300000000000D+00  0.0000000000000D+00  0.0000000000000D+00
175  1.7400000000000D+00  0.0000000000000D+00  0.0000000000000D+00
176  1.7500000000000D+00  0.0000000000000D+00  0.0000000000000D+00
177  1.7600000000000D+00  0.0000000000000D+00  0.0000000000000D+00
178  1.7700000000000D+00  0.0000000000000D+00  0.0000000000000D+00
179  1.7800000000000D+00  0.0000000000000D+00  0.0000000000000D+00
180  1.7900000000000D+00  0.0000000000000D+00  0.0000000000000D+00
181  1.8000000000000D+00  0.0000000000000D+00  0.0000000000000D+00
182  1.8100000000000D+00  0.0000000000000D+00  0.0000000000000D+00
183  1.8200000000000D+00  0.0000000000000D+00  0.0000000000000D+00
184  1.8300000000000D+00  0.0000000000000D+00  0.0000000000000D+00
185  1.8400000000000D+00  0.0000000000000D+00  0.0000000000000D+00
186  1.8500000000000D+00  0.0000000000000D+00  0.0000000000000D+00
187  1.8600000000000D+00  0.0000000000000D+00  0.0000000000000D+00
188  1.8700000000000D+00  0.0000000000000D+00  0.0000000000000D+00
189  1.8800000000000D+00  0.0000000000000D+00  0.0000000000000D+00
190  1.8900000000000D+00  0.0000000000000D+00  0.0000000000000D+00
191  1.9000000000000D+00  0.0000000000000D+00  0.0000000000000D+00
192  1.9100000000000D+00  0.0000000000000D+00  0.0000000000000D+00
193  1.9200000000000D+00  0.0000000000000D+00  0.0000000000000D+00
194  1.9300000000000D+00  0.0000000000000D+00  0.0000000000000D+00
195  1.9400000000000D+00  0.0000000000000D+00  0.0000000000000D+00
196  1.9500000000000D+00  0.0000000000000D+00  0.0000000000000D+00
197  1.9600000000000D+00  0.0000000000000D+00  0.0000000000000D+00
198  1.9700000000000D+00  0.0000000000000D+00  0.0000000000000D+00
199  1.9800000000000D+00  0.0000000000000D+00  0.0000000000000D+00
200  1.9900000000000D+00  0.0000000000000D+00  0.0000000000000D+00
201  2.0000000000000D+00  0.0000000000000D+00  0.0000000000000D+00
202  2.0100000000000D+00  0.0000000000000D+00  0.0000000000000D+00
203  2.0200000000000D+00  0.0000000000000D+00  0.0000000000000D+00
204  2.0300000000000D+00  0.0000000000000D+00  0.0000000000000D+00
205  2.0400000000000D+00  0.0000000000000D+00  0.0000000000000D+00
206  2.0500000000000D+00  0.0000000000000D+00  0.0000000000000D+00
207  2.0600000000000D+00  0.0000000000000D+00  0.0000000000000D+00
208  2.0700000000000D+00  0.0000000000000D+00  0.0000000000000D+00
209  2.0800000000000D+00  0.0000000000000D+00  0.0000000000000D+00
210  2.0900000000000D+00  0.0000000000000D+00  0.0000000000000D+00
211  2.1000000000000D+00  0.0000000000000D+00  0.0000000000000D+00
212  2.1100000000000D+00  0.0000000000000D+00  0.0000000000000D+00
213  2.1200000000000D+00  0.0000000000000D+00  0.0000000000000D+00
214  2.1300000000000D+00  0.0000000000000D+00  0.0000000000000D+00
215  2.1400000000000D+00  0.0000000000000D+00  0.0000000000000D+00
216  2.1500000000000D+00  0.0000000000000D+00  0.0000000000000D+00
217  2.1600000000000D+00  0.0000000000000D+00  0.0000000000000D+00
218  2.1700000000000D+00  0.0000000000000D+00  0.0000000000000D+00
219  2.1800000000000D+00  0.0000000000000D+00  0.0000000000000D+00
220  2.1900000000000D+00  0.0000000000000D+00  0.0000000000000D+00
221  2.2000000000000D+00  0.0000000000000D+00  0.0000000000000D+00
222  2.2100000000000D+00  0.0000000000000D+00  0.0000000000000D+00
223  2.2200000000000D+00  0.0000000000000D+00  0.0000000000000D+00
224  2.2300000000000D+00  0.0000000000000D+00  0.0000000000000D+00
225  2.2400000000000D+00  0.0000000000000D+00  0.0000000000000D+00
226  2.2500000000000D+00  0.0000000000000D+00  0.0000000000000D+00
227  2.2600000000000D+00  0.0000000000000D+00  0.0000000000000D+00
228  2.2700000000000D+00  0.0000000000000D+00  0.0000000000000D+00
229  2.2800000000000D+00  0.0000000000000D+00  0.0000000000000D+00
230  2.2900000000000D+00  0.0000000000000D+00  0.0000000000000D+00
231  2.3000000000000D+00  0.0000000000000D+00  0.0000000000000D+00
232  2.3100000000000D+00  0.0000000000000D+00  0.0000000000000D+00
233  2.3200000000000D+00  0.0000000000000D+00  0.0000000000000D+00
234  2.3300000000000D+00  0.0000000000000D+00  0.0000000000000D+00
235  2.3400000000000D+00  0.0000000000000D+00  0.0000000000000D+00
236  2.3500000000000D+00  0.0000000000000D+00  0.0000000000000D+00
237  2.3600000000000D+00  0.0000000000000D+00  0.0000000000000D+00
238  2.3700000000000D+00  0.0000000000000D+00  0.0000000000000D+00
239  2.3800000000000D+00  0.0000000000000D+00  0.0000000000000D+00
240  2.3900000000000D+00  0.0000000000000D+00  0.0000000000000D+00
241  2.4000000000000D+00  0.0000000000000D+00  0.0000000000000D+00
242  2.4100000000000D+00  0.0000000000000D+00  0.0000000000000D+00
243  2.4200000000000D+00  0.0000000000000D+00  0.0000000000000D+00
244  2.4300000000000D+00  0.0000000000000D+00  0.0000000000000D+00
245  2.4400000000000D+00  0.0000000000000D+00  0.0000000000000D+00
246  2.4500000000000D+00  0.0000000000000D+00  0.0000000000000D+00
247  2.4600000000000D+00  0.0000000000000D+00  0.0000000000000D+00
248  2.4700000000000D+00  0.0000000000000D+00  0.0000000000000D+00
249  2.4800000000000D+00  0.0000000000000D+00  0.0000000000000D+00
250  2.4900000000000D+00  0.0000000000000D+00  0.0000000000000D+00
251  2.5000000000000D+00  0.0000000000000D+00  0.0000000000000D+00
252  2.5100000000000D+00  0.0000000000000D+00  0.0000000000000D+00
253  2.5200000000000D+00  0.0000000000000D+00  0.0000000000000D+00
254  2.5300000000000D+00  0.0000000000000D+00  0.0000000000000D+00
255  2.5400000000000D+00  0.0000000000000D+00  0.0000000000000D+00
256  2.5500000000000D+00  0.0000000000000D+00  0.0000000000000D+00
257  2.5600000000000D+00  0.0000000000000D+00  0.0000000000000D+00
258  2.5700000000000D+00  0.0000000000000D+00  0.0000000000000D+00
259  2.5800000000000D+00  0.0000000000000D+00  0.0000000000000D+00
260  2.5900000000000D+00  0.0000000000000D+00  0.0000000000000D+00
261  2.6000000000000D+00  0.0000000000000D+00  0.0000000000000D+00
262  2.6100000000000D+00  0.0000000000000D+00  0.0000000000000D+00
263  2.6200000000000D+00  0.0000000000000D+00  0.0000000000000D+00
264  2.6300000000000D+00  0.0000000000000D+00  0.0000000000000D+00
265  2.6400000000000D+00  0.0000000000000D+00  0.0000000000000D+00
266  2.6500000000000D+00  0.0000000000000D+00  0.0000000000000D+00
267  2.6600000000000D+00  0.0000000000000D+00  0.0000000000000D+00
268  2.6700000000000D+00  0.0000000000000D+00  0.0000000000000D+00
269  2.6800000000000D+00  0.0000000000000D+00  0.0000000000000D+00
270  2.6900000000000D+00  0.0000000000000D+00  0.0000000000000D+00
271  2.7000000000000D+00  0.0000000000000D+00  0.0000000000000D+00
272  2.7100000000000D+00  0.0000000000000D+00  0.0000000000000D+00
273  2.7200000000000D+00  0.0000000000000D+00  0.0000000000000D+00
274  2.7300000000000D+00  0.0000000000000D+00  0.0000000000000D+00
275  2.7400000000000D+00  0.0000000000000D+00  0.0000000000000D+00
276  2.7500000000000D+00  0.0000000000000D+00  0.0000000000000D+00
277  2.7600000000000D+00  0.0000000000000D+00  0.0000000000000D+00
278  2.7700000000000D+00  0.0000000000000D+00  0.0000000000000D+00
279  2.7800000000000D+00  0.0000000000000D+00  0.0000000000000D+00
280  2.7900000000000D+00  0.0000000000000D+00  0.0000000000000D+00
281  2.8000000000000D+00  0.0000000000000D+00  0.0000000000000D+00
282  2.8100000000000D+00  0.0000000000000D+00  0.0000000000000D+00
283  2.8200000000000D+00  0.0000000000000D+00  0.0000000000000D+00
284  2.8300000000000D+00  0.0000000000000D+00  0.0000000000000D+00
285  2.8400000000000D+00  0.0000000000000D+00  0.0000000000000D+00
286  2.8500000000000D+00  0.0000000000000D+00  0.0000000000000D+00
287  2.8600000000000D+00  0.0000000000000D+00  0.0000000000000D+00
288  2.8700000000000D+00  0.0000000000000D+00  0.0000000000000D+00
289  2.8800000000000D+00  0.0000000000000D+00  0.0000000000000D+00
290  2.8900000000000D+00  0.0000000000000D+00  0.0000000000000D+00
291  2.9000000000000D+00  0.0000000000000D+00  0.0000000000000D+00
292  2.9100000000000D+00  0.0000000000000D+00  0.0000000000000D+00
293  2.9200000000000D+00  0.0000000000000D+00  0.0000000000000D+00
294  2.9300000000000D+00  0.0000000000000D+00  0.0000000000000D+00
295  2.9400000000000D+00  0.0000000000000D+00  0.0000000000000D+00
296  2.9500000000000D+00  0.0000000000000D+00  0.0000000000000D+00
297  2.9600000000000D+00  0.0000000000000D+00  0.0000000000000D+00
298  2.9700000000000D+00  0.0000000000000D+00  0.0000000000000D+00
299  2.9800000000000D+00  0.0000000000000D+00  0.0000000000000D+00
300  2.9900000000000D+00  0.0000000000000D+00  0.0000000000000D+00
301  3.0000000000000D+00  0.0000000000000D+00  0.0000000000000D+00
302  3.0100000000000D+00  0.0000000000000D+00  0.0000000000000D+00
303  3.0200000000000D+00  0.0000000000000D+00  0.0000000000000D+00
304  3.0300000000000D+00  0.0000000000000D+00  0.0000000000000D+00
305  3.0400000000000D+00  0.0000000000000D+00  0.0000000000000D+00
306  3.0500000000000D+00  0.0000000000000D+00  0.0000000000000D+00
307  3.0600000000000D+00  0.0000000000000D+00  0.0000000000000D+00
308  3.0700000000000D+00  0.0000000000000D+00  0.0000000000000D+00
309  3.0800000000000D+00  0.0000000000000D+00  0.0000000000000D+00
310  3.0900000000000D+00  0.0000000000000D+00  0.0000000000000D+00
311  3.1000000000000D+00  0.0000000000000D+00  0.0000000000000D+00
312  3.1100000000000D+00  0.0000000000000D+00  0.0000000000000D+00
313  3.1200000000000D+00  0.0000000000000D+00  0.0000000000000D+00
314  3.1300000000000D+00  0.0000000000000D+00  0.0000000000000D+00
315  3.1400000000000D+00  0.0000000000000D+00  0.0000000000000D+00
316  3.1500000000000D+00  0.0000000000000D+00  0.0000000000000D+00
317  3.1600000000000D+00  0.0000000000000D+00  0.0000000000000D+00
318  3.1700000000000D+00  0.0000000000000D+00  0.0000000000000D+00
319  3.1800000000000D+00  0.0000000000000D+00  0.0000000000000D+00
320  3.1900000000000D+00  0.0000000000000D+00  0.0000000000000D+00
321  3.2000000000000D+00  0.0000000000000D+00  0.0000000000000D+00
322  3.2100000000000D+00  0.0000000000000D+00  0.0000000000000D+00
323  3.2200000000000D+00  0.0000000000000D+00  0.0000000000000D+00
324  3.2300000000000D+00  0.0000000000000D+00  0.0000000000000D+00
325  3.2400000000000D+00  0.0000000000000D+00  0.0000000000000D+00
326  3.2500000000000D+00  0.0000000000000D+00  0.0000000000000D+00
327  3.2600000000000D+00  0.0000000000000D+00  0.0000000000000D+00
328  3.2700000000000D+00  0.0000000000000D+00  0.0000000000000D+00
329  3.2800000000000D+00  0.0000000000000D+00  0.0000000000000D+00
330  3.2900000000000D+00  0.0000000000000D+00  0.0000000000000D+00
331  3.3000000000000D+00  0.0000000000000D+00  0.0000000000000D+00
332  3.3100000000000D+00  0.0000000000000D+00  0.0000000000000D+00
333  3.3200000000000D+00  0.0000000000000D+00  0.0000000000000D+00
334  3.3300000000000D+00  0.0000000000000D+00  0.0000000000000D+00
335  3.3400000000000D+00  0.0000000000000D+00  0.0000000000000D+00
336  3.3500000000000D+00  0.0000000000000D+00  0.0000000000000D+00
337  3.3600000000000D+00  0.0000000000000D+00  0.0000000000000D+00
338  3.3700000000000D+00  0.0000000000000D+00  0.0000000000000D+00
339  3.3800000000000D+00  0.0000000000000D+00  0.0000000000000D+00
340  3.3900000000000D+00  0.0000000000000D+00  0.0000000000000D+00
341  3.4000000000000D+00  0.0000000000000D+00  0.0000000000000D+00
342  3.4100000000000D+00  0.0000000000000D+00  0.0000000000000D+00
343  3.4200000000000D+00  0.0000000000000D+00  0.0000000000000D+00
344  3.4300000000000D+00  0.0000000000000D+00  0.0000000000000D+00
345  3.4400000000000D+00  0.0000000000000D+00  0.0000000000000D+00
346  3.4500000000000D+00  0.0000000000000D+00  0.0000000000000D+00
347  3.4600000000000D+00  0.0000000000000D+00  0.0000000000000D+00
348  3.4700000000000D+00  0.0000000000000D+00  0.0000000000000D+00
349  3.4800000000000D+00  0.0000000000000D+00  0.0000000000000D+00
350  3.4900000000000D+00  0.0000000000000D+00  0.0000000000000D+00
351  3.5000000000000D+00  0.0000000000000D+00  0.0000000000000D+00
352  3.5100000000000D+00  0.0000000000000D+00  0.0000000000000D+00
353  3.5200000000000D+00  0.0000000000000D+00  0.0000000000000D+00
354  3.5300000000000D+00  0.0000000000000D+00  0.0000000000000D+00
355  3.5400000000000D+00  0.0000000000000D+00  0.0000000000000D+00
356  3.5500000000000D+00  0.0000000000000D+00  0.0000000000000D+00
357  3.5600000000000D+00  0.0000000000000D+00  0.0000000000000D+00
358  3.5700000000000D+00  0.0000000000000D+00  0.0000000000000D+00
359  3.5800000000000D+00  0.0000000000000D+00  0.0000000000000D+00
360  3.5900000000000D+00  0.0000000000000D+00  0.0000000000000D+00
361  3.6000000000000D+00  0.0000000000000D+00  0.0000000000000D+00
362  3.6100000000000D+00  0.0000000000000D+00  0.0000000000000D+00
363  3.6200000000000D+00  0.0000000000000D+00  0.0000000000000D+00
364  3.6300000000000D+00  0.0000000000000D+00  0.0000000000000D+00
365  3.6400000000000D+00  0.0000000000000D+00  0.0000000000000D+00
366  3.6500000000000D+00  0.0000000000000D+00  0.0000000000000D+00
367  3.6600000000000D+00  0.0000000000000D+00  0.0000000000000D+00
368  3.6700000000000D+00  0.0000000000000D+00  0.0000000000000D+00
369  3.6800000000000D+00  0.0000000000000D+00  0.0000000000000D+00
370  3.6900000000000D+00  0.0000000000000D+00  0.0000000000000D+00
371  3.7000000000000D+00  0.0000000000000D+00  0.0000000000000D+00
372  3.7100000000000D+00  0.0000000000000D+00  0.0000000000000D+00
373  3.7200000000000D+00  0.0000000000000D+00  0.0000000000000D+00
374  3.7300000000000D+00  0.0000000000000D+00  0.0000000000000D+00
375  3.7400000000000D+00  0.0000000000000D+00  0.0000000000000D+00
376  3.7500000000000D+00  0.0000000000000D+00  0.0000000000000D+00
377  3.7600000000000D+00  0.0000000000000D+00  0.0000000000000D+00
378  3.7700000000000D+00  0.0000000000000D+00  0.0000000000000D+00
379  3.7800000000000D+00  0.0000000000000D+00  0.0000000000000D+00
380  3.7900000000000D+00  0.0000000000000D+00  0.0000000000000D+00
381  3.8000000000000D+00  0.0000000000000D+00  0.0000000000000D+00
382  3.8100000000000D+00  0.0000000000000D+00  0.0000000000000D+00
383  3.8200000000000D+00  0.0000000000000D+00  0.0000000000000D+00
384  3.8300000000000D+00  0.0000000000000D+00  0.0000000000000D+00
385  3.8400000000000D+00  0.0000000000000D+00  0.0000000000000D+00
386  3.8500000000000D+00  0.0000000000000D+00  0.0000000000000D+00
387  3.8600000000000D+00  0.0000000000000D+00  0.0000000000000D+00
388  3.8700000000000D+00  0.0000000000000D+00  0.0000000000000D+00
389  3.8800000000000D+00  0.0000000000000D+00  0.0000000000000D+00
390  3.8900000000000D+00  0.0000000000000D+00  0.0000000000000D+00
391  3.9000000000000D+00  0.0000000000000D+00  0.0000000000000D+00
392  3.9100000000000D+00  0.0000000000000D+00  0.0000000000000D+00
393  3.9200000000000D+00  0.0000000000000D+00  0.0000000000000D+00
394  3.9300000000000D+00  0.0000000000000D+00  0.0000000000000D+00
395  3.9400000000000D+00  0.0000000000000D+00  0.0000000000000D+00
396  3.9500000000000D+00  0.0000000000000D+00  0.0000000000000D+00
397  3.9600000000000D+00  0.0000000000000D+00  0.0000000000000D+00
398  3.9700000000000D+00  0.0000000000000D+00  0.0000000000000D+00
399  3.9800000000000D+00  0.0000000000000D+00  0.0000000000000D+00
400  3.9900000000000D+00  0.0000000000000D+00  0.0000000000000D+00
1                         4.4308245009302D+00  5.6015463892299D-01  4.6914059374574D-05
1  0.0000000000000D+00  3.9935635354205D-10 -1.6853734241540D-09  1.7377484090586D-08
2  1.0000000000000D-02  1.6079471084383D-03 -1.1989988572424D-03  2.5631690022216D-03
3  2.0000000000000D-02  6.4251872714976D-03 -4.7863717798444D-03  1.0214286659210D-02
4  3.0000000000000D-02  1.4431948329961D-02 -1.0733329112298D-02  2.2838792449411D-02
5  4.0000000000000D-02  2.5595380890749D-02 -1.8992158116321D-02  4.0247767371289D-02
6  5.0000000000000D-02  3.9869713869862D-02 -2.9496624685688D-02  6.2180921837049D-02
7  6.0000000000000D-02  5.7196470730491D-02 -4.2162529163356D-02  8.8310709584711D-02
8  7.0000000000000D-02  7.7504744915337D-02 -5.6888409793157D-02  1.1824749977119D-01
9  8.0000000000000D-02  1.0071153257286D-01 -7.3556385652950D-02  1.5154572203155D-01
10  9.0000000000000D-02  1.2672212029954D-01 -9.2033129350027D-02  1.8771088319322D-01
11  1.0000000000000D-01  1.5543052526849D-01 -1.1217095833501D-01  2.2620733997228D-01
12  1.1000000000000D-01  1.8671998479210D-01 -1.3380903242687D-01  2.6646669949725D-01
13  1.2000000000000D-01  2.2046349207707D-01 -1.5677464405849D-01  3.0789670916987D-01
14  1.3000000000000D-01  2.5652437467628D-01 -1.8088458686368D-01  3.4989048925464D-01
15  1.4000000000000D-01  2.9475691192595D-01 -2.0594658754393D-01  3.9183595596065D-01
16  1.5000000000000D-01  3.3500698748040D-01 -2.3176078548739D-01  4.3312527967811D-01
17  1.6000000000000D-01  3.7711277292170D-01 -2.5812124436703D-01  4.7316422241414D-01
18  1.7000000000000D-01  4.2090543832749D-01 -2.8481747992216D-01  5.1138120063155D-01
19  1.8000000000000D-01  4.6620988562820D-01 -3.1163598832773D-01  5.4723592420064D-01
20  1.9000000000000D-01  5.1284550057330D-01 -3.3836175997045D-01  5.8022746940566D-01
21  2.0000000000000D-01  5.6062691915470D-01 -3.6477976407592D-01  6.0990165338237D-01
22  2.1000000000000D-01  6.0936480440112D-01 -3.9067639045046D-01  6.3585758920784D-01
23  2.2000000000000D-01  6.5886662955922D-01 -4.1584083560452D-01  6.5775331458157D-01
24  2.3000000000000D-01  7.0893746381122D-01 -4.4006642169030D-01  6.7531040280684D-01
25  2.4000000000000D-01  7.5938075684299D-01 -4.6315183799670D-01  6.8831748192014D-01
26  2.5000000000000D-01  8.0999911876574D-01 -4.8490229617634D-01  6.9663260640086D-01
27  2.6000000000000D-01  8.6059509210641D-01 -5.0513059190778D-01  7.0018444543390D-01
28  2.7000000000000D-01  9.1097191281061D-01 -5.2365806729527D-01  6.9897227185290D-01
29  2.8000000000000D-01  9.6093425744455D-01 -5.4031546995154D-01  6.9306475650979D-01
30  2.9000000000000D-01  1.0102889740334D+00 -5.5494370636825D-01  6.8259759328468D-01
31  3.0000000000000D-01  1.0588457942284D+00 -5.6739448882540D-01  6.6777000020465D-01
32  3.1000000000000D-01  1.1064180247507D+00 -5.7753087669855D-01  6.4884016157458D-01