Kr    ONCVPSP-3.3.0  r_core=   1.75984   1.50704   1.80233
36.0000      8.0000      180503    zatom,zion,pspd
8 -116133   2     4   600     0    pspcod,pspxc,lmax,lloc,mmax,r2well
5.99000000  7.00000000  0.00000000    rchrg fchrg qchrg
2     3     3     0    nproj
3     1           extension_switch
4     4     0    nprojso
0                         8.3676116347730D-01  8.4232744247308D+00
1  0.0000000000000D+00  3.9604955426320D-10 -9.2719498745453D-11
2  1.0000000000000D-02 -1.6890806212591D-02  3.9131726030303D-02
3  2.0000000000000D-02 -3.3690707721895D-02  7.8223350837169D-02
4  3.0000000000000D-02 -5.0309672670562D-02  1.1723495478740D-01
5  4.0000000000000D-02 -6.6659405139884D-02  1.5612697928802D-01
6  5.0000000000000D-02 -8.2654188837390D-02  1.9486040197946D-01
7  6.0000000000000D-02 -9.8211701929476D-02  2.3339690560278D-01
8  7.0000000000000D-02 -1.1325379386951D-01  2.7169903854204D-01
9  8.0000000000000D-02 -1.2770721546796D-01  3.0973036513573D-01
10  9.0000000000000D-02 -1.4150429393887D-01  3.4745560396534D-01
11  1.0000000000000D-01 -1.5458354523205D-01  3.8484075246341D-01
12  1.1000000000000D-01 -1.6689021661652D-01  4.2185319633725D-01
13  1.2000000000000D-01 -1.7837675321291D-01  4.5846180247503D-01
14  1.3000000000000D-01 -1.8900318297155D-01  4.9463699418762D-01
15  1.4000000000000D-01 -1.9873741545365D-01  5.3035080784017D-01
16  1.5000000000000D-01 -2.0755545068438D-01  5.6557693013944D-01
17  1.6000000000000D-01 -2.1544149530214D-01  6.0029071556513D-01
18  1.7000000000000D-01 -2.2238798421624D-01  6.3446918366258D-01
19  1.8000000000000D-01 -2.2839550699837D-01  6.6809099614888D-01
20  1.9000000000000D-01 -2.3347263925917D-01  7.0113641402160D-01
21  2.0000000000000D-01 -2.3763568029156D-01  7.3358723509663D-01
22  2.1000000000000D-01 -2.4090829928592D-01  7.6542671263695D-01
23  2.2000000000000D-01 -2.4332109342900D-01  7.9663945596462D-01
24  2.3000000000000D-01 -2.4491106217803D-01  8.2721131417164D-01
25  2.4000000000000D-01 -2.4572100294440D-01  8.5712924425925D-01
26  2.5000000000000D-01 -2.4579883431698D-01  8.8638116523728D-01
27  2.6000000000000D-01 -2.4519685379559D-01  9.1495579990323D-01
28  2.7000000000000D-01 -2.4397093778020D-01  9.4284250619270D-01
29  2.8000000000000D-01 -2.4217969226348D-01  9.7003110014664D-01
30  2.9000000000000D-01 -2.3988356329652D-01  9.9651167267472D-01
31  3.0000000000000D-01 -2.3714391683065D-01  1.0222744024070D+00
32  3.1000000000000D-01 -2.3402209797935D-01  1.0473093670151D+00
33  3.2000000000000D-01 -2.3057848008543D-01  1.0716063554499D+00
34  3.3000000000000D-01 -2.2687151421656D-01  1.0951546835836D+00
35  3.4000000000000D-01 -2.2295678984419D-01  1.1179430157563D+00
36  3.5000000000000D-01 -2.1888611748321D-01  1.1399591947196D+00
37  3.6000000000000D-01 -2.1470664398203D-01  1.1611900824253D+00
38  3.7000000000000D-01 -2.1046001095400D-01  1.1816214140487D+00
39  3.8000000000000D-01 -2.0618156653375D-01  1.2012376675381D+00
40  3.9000000000000D-01 -2.0189964022468D-01  1.2200219508704D+00
41  4.0000000000000D-01 -1.9763489008371D-01  1.2379559090464D+00
42  4.1000000000000D-01 -1.9339973086661D-01  1.2550196526949D+00
43  4.2000000000000D-01 -1.8919785103905D-01  1.2711917099656D+00
44  4.3000000000000D-01 -1.8502382575052D-01  1.2864490031800D+00
45  4.4000000000000D-01 -1.8086283197670D-01  1.3007668514808D+00
46  4.5000000000000D-01 -1.7669047106928D-01  1.3141190004729D+00
47  4.6000000000000D-01 -1.7247270291916D-01  1.3264776795870D+00
48  4.7000000000000D-01 -1.6816589484852D-01  1.3378136876219D+00
49  4.8000000000000D-01 -1.6371698720945D-01  1.3480965066367D+00
50  4.9000000000000D-01 -1.5906377649337D-01  1.3572944440695D+00
51  5.0000000000000D-01 -1.5413531555517D-01  1.3653748026651D+00
52  5.1000000000000D-01 -1.4885242934355D-01  1.3723040774881D+00
53  5.2000000000000D-01 -1.4312834331327D-01  1.3780481790053D+00
54  5.3000000000000D-01 -1.3686942048946D-01  1.3825726809221D+00
55  5.4000000000000D-01 -1.2997600197065D-01  1.3858430911692D+00
56  5.5000000000000D-01 -1.2234334450784D-01  1.3878251441597D+00
57  5.6000000000000D-01 -1.1386264769153D-01  1.3884851121679D+00
58  5.7000000000000D-01 -1.0442216223388D-01  1.3877901334332D+00
59  5.8000000000000D-01 -9.3908369851030D-02  1.3857085543567D+00
60  5.9000000000000D-01 -8.2207224354251D-02  1.3822102829507D+00
61  6.0000000000000D-01 -6.9205442743268D-02  1.3772671505093D+00
62  6.1000000000000D-01 -5.4791834384810D-02  1.3708532783071D+00
63  6.2000000000000D-01 -3.8858655749343D-02  1.3629454459968D+00
64  6.3000000000000D-01 -2.1302977686408D-02  1.3535234582712D+00
65  6.4000000000000D-01 -2.0280518453811D-03  1.3425705062773D+00
66  6.5000000000000D-01  1.9055337401330D-02  1.3300735202285D+00
67  6.6000000000000D-01  4.2027549292659D-02  1.3160235096502D+00
68  6.7000000000000D-01  6.6958805018618D-02  1.3004158877161D+00
69  6.8000000000000D-01  9.3907961664165D-02  1.2832507761896D+00
70  6.9000000000000D-01  1.2292135507290D-01  1.2645332875774D+00
71  7.0000000000000D-01  1.5403172453118D-01  1.2442737812243D+00
72  7.1000000000000D-01  1.8725723162255D-01  1.2224880902400D+00
73  7.2000000000000D-01  2.2260058492708D-01  1.1991977163340D+00
74  7.3000000000000D-01  2.6004828143876D-01  1.1744299898603D+00
75  7.4000000000000D-01  2.9956997465772D-01  1.1482181926211D+00
76  7.5000000000000D-01  3.4111797828601D-01  1.1206016412561D+00
77  7.6000000000000D-01  3.8462691332433D-01  1.0916257293495D+00
78  7.7000000000000D-01  4.3001350514685D-01  1.0613419267096D+00
79  7.8000000000000D-01  4.7717653582745D-01  1.0298077346223D+00
80  7.9000000000000D-01  5.2599695561679D-01  9.9708659624534D-01
81  8.0000000000000D-01  5.7633815603777D-01  9.6324776168165D-01
82  8.1000000000000D-01  6.2804640559105D-01  9.2836610766266D-01
83  8.2000000000000D-01  6.8095144755429D-01  8.9252191216407D-01
84  8.3000000000000D-01  7.3486725783447D-01  8.5580058467567D-01
85  8.4000000000000D-01  7.8959295930453D-01  8.1829235324472D-01
86  8.5000000000000D-01  8.4491388754136D-01  7.8009190980672D-01
87  8.6000000000000D-01  9.0060280139264D-01  7.4129801570397D-01
88  8.7000000000000D-01  9.5642123035352D-01  7.0201306966801D-01
89  8.8000000000000D-01  1.0121209493424D+00  6.6234264090220D-01
90  8.9000000000000D-01  1.0674455701434D+00  6.2239497024335D-01
91  9.0000000000000D-01  1.1221322375462D+00  5.8228044270088D-01
92  9.1000000000000D-01  1.1759134170697D+00  5.4211103496779D-01
93  9.2000000000000D-01  1.2285187601247D+00  5.0199974176422D-01
94  9.3000000000000D-01  1.2796770315556D+00  4.6205998511025D-01
95  9.4000000000000D-01  1.3291180837169D+00  4.2240501082757D-01
96  9.5000000000000D-01  1.3765748605940D+00  3.8314727673549D-01
97  9.6000000000000D-01  1.4217854149792D+00  3.4439783713610D-01
98  9.7000000000000D-01  1.4644949213669D+00  3.0626572827269D-01
99  9.8000000000000D-01  1.5044576670407D+00  2.6885735949454D-01
100  9.9000000000000D-01  1.5414390038026D+00  2.3227591486757D-01
101  1.0000000000000D+00  1.5752172429259D+00  1.9662076993680D-01
102  1.0100000000000D+00  1.6055854762072D+00  1.6198692827028D-01
103  1.0200000000000D+00  1.6323533064664D+00  1.2846448229377D-01
104  1.0300000000000D+00  1.6553484714516D+00  9.6138102767447D-02
105  1.0400000000000D+00  1.6744183458859D+00  6.5086561057075D-02
106  1.0500000000000D+00  1.6894313073341D+00  3.5382288108136D-02
107  1.0600000000000D+00  1.7002779526067D+00  7.0909737655136D-03
108  1.0700000000000D+00  1.7068721526089D+00 -1.9728790226759D-02
109  1.0800000000000D+00  1.7091519349224D+00 -4.5025820565055D-02
110  1.0900000000000D+00  1.7070801847633D+00 -6.8756603435737D-02
111  1.1000000000000D+00  1.7006451566129D+00 -9.0885504070105D-02
112  1.1100000000000D+00  1.6898607902274D+00 -1.1138492296540D-01
113  1.1200000000000D+00  1.6747668266065D+00 -1.3023539741562D-01
114  1.1300000000000D+00  1.6554287211649D+00 -1.4742564742694D-01
115  1.1400000000000D+00  1.6319373531987D+00 -1.6295256557071D-01
116  1.1500000000000D+00  1.6044085323666D+00 -1.7682115074913D-01
117  1.1600000000000D+00  1.5729823048114D+00 -1.8904438634347D-01
118  1.1700000000000D+00  1.5378220634065D+00 -1.9964306369815D-01
119  1.1800000000000D+00  1.4991134684133D+00 -2.0864555236377D-01
120  1.1900000000000D+00  1.4570631860986D+00 -2.1608751885239D-01
121  1.2000000000000D+00  1.4118974551042D+00 -2.2201159624475D-01
122  1.2100000000000D+00  1.3638604916704D+00 -2.2646700733487D-01
123  1.2200000000000D+00  1.3132127462208D+00 -2.2950914436896D-01
124  1.2300000000000D+00  1.2602290250734D+00 -2.3119910876685D-01
125  1.2400000000000D+00  1.2051964927353D+00 -2.3160321466714D-01
126  1.2500000000000D+00  1.1484125709804D+00 -2.3079246034069D-01
127  1.2600000000000D+00  1.0901827516246D+00 -2.2884197170603D-01
128  1.2700000000000D+00  1.0308183414335D+00 -2.2583042260053D-01
129  1.2800000000000D+00  9.7063415760218D-01 -2.2183943647620D-01
130  1.2900000000000D+00  9.0994619280219D-01 -2.1695297433337D-01
131  1.3000000000000D+00  8.4906926946610D-01 -2.1125671392235D-01
132  1.3100000000000D+00  7.8831470243246D-01 -2.0483742511302D-01
133  1.3200000000000D+00  7.2798798970763D-01 -1.9778234649653D-01
134  1.3300000000000D+00  6.6838655027603D-01 -1.9017856812882D-01
135  1.3400000000000D+00  6.0979752743833D-01 -1.8211242520737D-01
136  1.3500000000000D+00  5.5249567648788D-01 -1.7366890757167D-01
137  1.3600000000000D+00  4.9674135296506D-01 -1.6493108932026D-01
138  1.3700000000000D+00  4.4277861856811D-01 -1.5597958302921D-01
139  1.3800000000000D+00  3.9083348021946D-01 -1.4689202269837D-01
140  1.3900000000000D+00  3.4111227443842D-01 -1.3774257873966D-01
141  1.4000000000000D+00  2.9380021262733D-01 -1.2860150916007D-01
142  1.4100000000000D+00  2.4906009542894D-01 -1.1953474929641D-01
143  1.4200000000000D+00  2.0703120697446D-01 -1.1060354309378D-01
144  1.4300000000000D+00  1.6782839797452D-01 -1.0186411847944D-01
145  1.4400000000000D+00  1.3154135991113D-01 -9.3367407734509D-02
146  1.4500000000000D+00  9.8234100082359D-02 -8.5158815611613D-02
147  1.4600000000000D+00  6.7944609745244D-02 -7.7278034001504D-02
148  1.4700000000000D+00  4.0684759841107D-02 -6.9758909587700D-02
149  1.4800000000000D+00  1.6440302623227D-02 -6.2629343982398D-02
150  1.4900000000000D+00 -4.8286329065648D-03 -5.5911293474071D-02
151  1.5000000000000D+00 -2.3187388983572D-02 -4.9620721694883D-02
152  1.5100000000000D+00 -3.8726435394149D-02 -4.3767606264374D-02
153  1.5200000000000D+00 -5.1558403325789D-02 -3.8356389491785D-02
154  1.5300000000000D+00 -6.1815347928727D-02 -3.3386423491604D-02
155  1.5400000000000D+00 -6.9645282718667D-02 -2.8852588719238D-02
156  1.5500000000000D+00 -7.5209638243719D-02 -2.4745772503275D-02
157  1.5600000000000D+00 -7.8682124503403D-02 -2.1053138363899D-02
158  1.5700000000000D+00 -8.0246755951150D-02 -1.7758540118639D-02
159  1.5800000000000D+00 -8.0095871279713D-02 -1.4842944742759D-02
160  1.5900000000000D+00 -7.8428138225481D-02 -1.2284866743962D-02
161  1.6000000000000D+00 -7.5446503266978D-02 -1.0060817391209D-02
162  1.6100000000000D+00 -7.1356123927482D-02 -8.1457615749499D-03
163  1.6200000000000D+00 -6.6362295683523D-02 -6.5135786538696D-03
164  1.6300000000000D+00 -6.0668395339809D-02 -5.1375221276945D-03
165  1.6400000000000D+00 -5.4473857849791D-02 -3.9906739528748D-03
166  1.6500000000000D+00 -4.7972209077652D-02 -3.0463880054867D-03
167  1.6600000000000D+00 -4.1349167666023D-02 -2.2787194424326D-03
168  1.6700000000000D+00 -3.4780840278107D-02 -1.6628340234594D-03
169  1.6800000000000D+00 -2.8432019058679D-02 -1.1753952046513D-03
170  1.6900000000000D+00 -2.2454606684493D-02 -7.9492278911335D-04
171  1.7000000000000D+00 -1.6987770285582D-02 -5.0207808926004D-04
172  1.7100000000000D+00 -1.2154241495196D-02 -2.8002407332241D-04
173  1.7200000000000D+00 -8.0390580028432D-03 -1.1547413797907D-04
174  1.7300000000000D+00 -4.7308139122250D-03  2.4067268303982D-06
175  1.7400000000000D+00 -2.4004944565975D-03  8.7778620896920D-05
176  1.7500000000000D+00 -1.0894767664049D-03  1.4681019606774D-04
177  1.7600000000000D+00 -4.6490464070985D-04  1.5190801500372D-04
178  1.7700000000000D+00 -1.4575152856818D-04  8.3988755310371D-05
179  1.7800000000000D+00 -7.2308712093154D-06  5.9355760110332D-06
180  1.7900000000000D+00  1.7011332844631D-05 -1.7358085919712D-05
181  1.8000000000000D+00  3.6388698732286D-06 -4.6623305413390D-06
182  1.8100000000000D+00 -5.1131373842682D-06  3.6542290726034D-06
183  1.8200000000000D+00 -2.4896453313816D-06  1.9050274765789D-06
184  1.8300000000000D+00  1.0935781752474D-06 -3.5330442576983D-07
185  1.8400000000000D+00  9.4858582571512D-07 -3.0646146570350D-07
186  1.8500000000000D+00  0.0000000000000D+00  0.0000000000000D+00
187  1.8600000000000D+00  0.0000000000000D+00  0.0000000000000D+00
188  1.8700000000000D+00  0.0000000000000D+00  0.0000000000000D+00
189  1.8800000000000D+00  0.0000000000000D+00  0.0000000000000D+00
190  1.8900000000000D+00  0.0000000000000D+00  0.0000000000000D+00
191  1.9000000000000D+00  0.0000000000000D+00  0.0000000000000D+00
192  1.9100000000000D+00  0.0000000000000D+00  0.0000000000000D+00
193  1.9200000000000D+00  0.0000000000000D+00  0.0000000000000D+00
194  1.9300000000000D+00  0.0000000000000D+00  0.0000000000000D+00
195  1.9400000000000D+00  0.0000000000000D+00  0.0000000000000D+00
196  1.9500000000000D+00  0.0000000000000D+00  0.0000000000000D+00
197  1.9600000000000D+00  0.0000000000000D+00  0.0000000000000D+00
198  1.9700000000000D+00  0.0000000000000D+00  0.0000000000000D+00
199  1.9800000000000D+00  0.0000000000000D+00  0.0000000000000D+00
200  1.9900000000000D+00  0.0000000000000D+00  0.0000000000000D+00
201  2.0000000000000D+00  0.0000000000000D+00  0.0000000000000D+00
202  2.0100000000000D+00  0.0000000000000D+00  0.0000000000000D+00
203  2.0200000000000D+00  0.0000000000000D+00  0.0000000000000D+00
204  2.0300000000000D+00  0.0000000000000D+00  0.0000000000000D+00
205  2.0400000000000D+00  0.0000000000000D+00  0.0000000000000D+00
206  2.0500000000000D+00  0.0000000000000D+00  0.0000000000000D+00
207  2.0600000000000D+00  0.0000000000000D+00  0.0000000000000D+00
208  2.0700000000000D+00  0.0000000000000D+00  0.0000000000000D+00
209  2.0800000000000D+00  0.0000000000000D+00  0.0000000000000D+00
210  2.0900000000000D+00  0.0000000000000D+00  0.0000000000000D+00
211  2.1000000000000D+00  0.0000000000000D+00  0.0000000000000D+00
212  2.1100000000000D+00  0.0000000000000D+00  0.0000000000000D+00
213  2.1200000000000D+00  0.0000000000000D+00  0.0000000000000D+00
214  2.1300000000000D+00  0.0000000000000D+00  0.0000000000000D+00
215  2.1400000000000D+00  0.0000000000000D+00  0.0000000000000D+00
216  2.1500000000000D+00  0.0000000000000D+00  0.0000000000000D+00
217  2.1600000000000D+00  0.0000000000000D+00  0.0000000000000D+00
218  2.1700000000000D+00  0.0000000000000D+00  0.0000000000000D+00
219  2.1800000000000D+00  0.0000000000000D+00  0.0000000000000D+00
220  2.1900000000000D+00  0.0000000000000D+00  0.0000000000000D+00
221  2.2000000000000D+00  0.0000000000000D+00  0.0000000000000D+00
222  2.2100000000000D+00  0.0000000000000D+00  0.0000000000000D+00
223  2.2200000000000D+00  0.0000000000000D+00  0.0000000000000D+00
224  2.2300000000000D+00  0.0000000000000D+00  0.0000000000000D+00
225  2.2400000000000D+00  0.0000000000000D+00  0.0000000000000D+00
226  2.2500000000000D+00  0.0000000000000D+00  0.0000000000000D+00
227  2.2600000000000D+00  0.0000000000000D+00  0.0000000000000D+00
228  2.2700000000000D+00  0.0000000000000D+00  0.0000000000000D+00
229  2.2800000000000D+00  0.0000000000000D+00  0.0000000000000D+00
230  2.2900000000000D+00  0.0000000000000D+00  0.0000000000000D+00
231  2.3000000000000D+00  0.0000000000000D+00  0.0000000000000D+00
232  2.3100000000000D+00  0.0000000000000D+00  0.0000000000000D+00
233  2.3200000000000D+00  0.0000000000000D+00  0.0000000000000D+00
234  2.3300000000000D+00  0.0000000000000D+00  0.0000000000000D+00
235  2.3400000000000D+00  0.0000000000000D+00  0.0000000000000D+00
236  2.3500000000000D+00  0.0000000000000D+00  0.0000000000000D+00
237  2.3600000000000D+00  0.0000000000000D+00  0.0000000000000D+00
238  2.3700000000000D+00  0.0000000000000D+00  0.0000000000000D+00
239  2.3800000000000D+00  0.0000000000000D+00  0.0000000000000D+00
240  2.3900000000000D+00  0.0000000000000D+00  0.0000000000000D+00
241  2.4000000000000D+00  0.0000000000000D+00  0.0000000000000D+00
242  2.4100000000000D+00  0.0000000000000D+00  0.0000000000000D+00
243  2.4200000000000D+00  0.0000000000000D+00  0.0000000000000D+00
244  2.4300000000000D+00  0.0000000000000D+00  0.0000000000000D+00
245  2.4400000000000D+00  0.0000000000000D+00  0.0000000000000D+00
246  2.4500000000000D+00  0.0000000000000D+00  0.0000000000000D+00
247  2.4600000000000D+00  0.0000000000000D+00  0.0000000000000D+00
248  2.4700000000000D+00  0.0000000000000D+00  0.0000000000000D+00
249  2.4800000000000D+00  0.0000000000000D+00  0.0000000000000D+00
250  2.4900000000000D+00  0.0000000000000D+00  0.0000000000000D+00
251  2.5000000000000D+00  0.0000000000000D+00  0.0000000000000D+00
252  2.5100000000000D+00  0.0000000000000D+00  0.0000000000000D+00
253  2.5200000000000D+00  0.0000000000000D+00  0.0000000000000D+00
254  2.5300000000000D+00  0.0000000000000D+00  0.0000000000000D+00
255  2.5400000000000D+00  0.0000000000000D+00  0.0000000000000D+00
256  2.5500000000000D+00  0.0000000000000D+00  0.0000000000000D+00
257  2.5600000000000D+00  0.0000000000000D+00  0.0000000000000D+00
258  2.5700000000000D+00  0.0000000000000D+00  0.0000000000000D+00
259  2.5800000000000D+00  0.0000000000000D+00  0.0000000000000D+00
260  2.5900000000000D+00  0.0000000000000D+00  0.0000000000000D+00
261  2.6000000000000D+00  0.0000000000000D+00  0.0000000000000D+00
262  2.6100000000000D+00  0.0000000000000D+00  0.0000000000000D+00
263  2.6200000000000D+00  0.0000000000000D+00  0.0000000000000D+00
264  2.6300000000000D+00  0.0000000000000D+00  0.0000000000000D+00
265  2.6400000000000D+00  0.0000000000000D+00  0.0000000000000D+00
266  2.6500000000000D+00  0.0000000000000D+00  0.0000000000000D+00
267  2.6600000000000D+00  0.0000000000000D+00  0.0000000000000D+00
268  2.6700000000000D+00  0.0000000000000D+00  0.0000000000000D+00
269  2.6800000000000D+00  0.0000000000000D+00  0.0000000000000D+00
270  2.6900000000000D+00  0.0000000000000D+00  0.0000000000000D+00
271  2.7000000000000D+00  0.0000000000000D+00  0.0000000000000D+00
272  2.7100000000000D+00  0.0000000000000D+00  0.0000000000000D+00
273  2.7200000000000D+00  0.0000000000000D+00  0.0000000000000D+00
274  2.7300000000000D+00  0.0000000000000D+00  0.0000000000000D+00
275  2.7400000000000D+00  0.0000000000000D+00  0.0000000000000D+00
276  2.7500000000000D+00  0.0000000000000D+00  0.0000000000000D+00
277  2.7600000000000D+00  0.0000000000000D+00  0.0000000000000D+00
278  2.7700000000000D+00  0.0000000000000D+00  0.0000000000000D+00
279  2.7800000000000D+00  0.0000000000000D+00  0.0000000000000D+00
280  2.7900000000000D+00  0.0000000000000D+00  0.0000000000000D+00
281  2.8000000000000D+00  0.0000000000000D+00  0.0000000000000D+00
282  2.8100000000000D+00  0.0000000000000D+00  0.0000000000000D+00
283  2.8200000000000D+00  0.0000000000000D+00  0.0000000000000D+00
284  2.8300000000000D+00  0.0000000000000D+00  0.0000000000000D+00
285  2.8400000000000D+00  0.0000000000000D+00  0.0000000000000D+00
286  2.8500000000000D+00  0.0000000000000D+00  0.0000000000000D+00
287  2.8600000000000D+00  0.0000000000000D+00  0.0000000000000D+00
288  2.8700000000000D+00  0.0000000000000D+00  0.0000000000000D+00
289  2.8800000000000D+00  0.0000000000000D+00  0.0000000000000D+00
290  2.8900000000000D+00  0.0000000000000D+00  0.0000000000000D+00
291  2.9000000000000D+00  0.0000000000000D+00  0.0000000000000D+00
292  2.9100000000000D+00  0.0000000000000D+00  0.0000000000000D+00
293  2.9200000000000D+00  0.0000000000000D+00  0.0000000000000D+00
294  2.9300000000000D+00  0.0000000000000D+00  0.0000000000000D+00
295  2.9400000000000D+00  0.0000000000000D+00  0.0000000000000D+00
296  2.9500000000000D+00  0.0000000000000D+00  0.0000000000000D+00
297  2.9600000000000D+00  0.0000000000000D+00  0.0000000000000D+00
298  2.9700000000000D+00  0.0000000000000D+00  0.0000000000000D+00
299  2.9800000000000D+00  0.0000000000000D+00  0.0000000000000D+00
300  2.9900000000000D+00  0.0000000000000D+00  0.0000000000000D+00
301  3.0000000000000D+00  0.0000000000000D+00  0.0000000000000D+00
302  3.0100000000000D+00  0.0000000000000D+00  0.0000000000000D+00
303  3.0200000000000D+00  0.0000000000000D+00  0.0000000000000D+00
304  3.0300000000000D+00  0.0000000000000D+00  0.0000000000000D+00
305  3.0400000000000D+00  0.0000000000000D+00  0.0000000000000D+00
306  3.0500000000000D+00  0.0000000000000D+00  0.0000000000000D+00
307  3.0600000000000D+00  0.0000000000000D+00  0.0000000000000D+00
308  3.0700000000000D+00  0.0000000000000D+00  0.0000000000000D+00
309  3.0800000000000D+00  0.0000000000000D+00  0.0000000000000D+00
310  3.0900000000000D+00  0.0000000000000D+00  0.0000000000000D+00
311  3.1000000000000D+00  0.0000000000000D+00  0.0000000000000D+00
312  3.1100000000000D+00  0.0000000000000D+00  0.0000000000000D+00
313  3.1200000000000D+00  0.0000000000000D+00  0.0000000000000D+00
314  3.1300000000000D+00  0.0000000000000D+00  0.0000000000000D+00
315  3.1400000000000D+00  0.0000000000000D+00  0.0000000000000D+00
316  3.1500000000000D+00  0.0000000000000D+00  0.0000000000000D+00
317  3.1600000000000D+00  0.0000000000000D+00  0.0000000000000D+00
318  3.1700000000000D+00  0.0000000000000D+00  0.0000000000000D+00
319  3.1800000000000D+00  0.0000000000000D+00  0.0000000000000D+00
320  3.1900000000000D+00  0.0000000000000D+00  0.0000000000000D+00
321  3.2000000000000D+00  0.0000000000000D+00  0.0000000000000D+00
322  3.2100000000000D+00  0.0000000000000D+00  0.0000000000000D+00
323  3.2200000000000D+00  0.0000000000000D+00  0.0000000000000D+00
324  3.2300000000000D+00  0.0000000000000D+00  0.0000000000000D+00
325  3.2400000000000D+00  0.0000000000000D+00  0.0000000000000D+00
326  3.2500000000000D+00  0.0000000000000D+00  0.0000000000000D+00
327  3.2600000000000D+00  0.0000000000000D+00  0.0000000000000D+00
328  3.2700000000000D+00  0.0000000000000D+00  0.0000000000000D+00
329  3.2800000000000D+00  0.0000000000000D+00  0.0000000000000D+00
330  3.2900000000000D+00  0.0000000000000D+00  0.0000000000000D+00
331  3.3000000000000D+00  0.0000000000000D+00  0.0000000000000D+00
332  3.3100000000000D+00  0.0000000000000D+00  0.0000000000000D+00
333  3.3200000000000D+00  0.0000000000000D+00  0.0000000000000D+00
334  3.3300000000000D+00  0.0000000000000D+00  0.0000000000000D+00
335  3.3400000000000D+00  0.0000000000000D+00  0.0000000000000D+00
336  3.3500000000000D+00  0.0000000000000D+00  0.0000000000000D+00
337  3.3600000000000D+00  0.0000000000000D+00  0.0000000000000D+00
338  3.3700000000000D+00  0.0000000000000D+00  0.0000000000000D+00
339  3.3800000000000D+00  0.0000000000000D+00  0.0000000000000D+00
340  3.3900000000000D+00  0.0000000000000D+00  0.0000000000000D+00
341  3.4000000000000D+00  0.0000000000000D+00  0.0000000000000D+00
342  3.4100000000000D+00  0.0000000000000D+00  0.0000000000000D+00
343  3.4200000000000D+00  0.0000000000000D+00  0.0000000000000D+00
344  3.4300000000000D+00  0.0000000000000D+00  0.0000000000000D+00
345  3.4400000000000D+00  0.0000000000000D+00  0.0000000000000D+00
346  3.4500000000000D+00  0.0000000000000D+00  0.0000000000000D+00
347  3.4600000000000D+00  0.0000000000000D+00  0.0000000000000D+00
348  3.4700000000000D+00  0.0000000000000D+00  0.0000000000000D+00
349  3.4800000000000D+00  0.0000000000000D+00  0.0000000000000D+00
350  3.4900000000000D+00  0.0000000000000D+00  0.0000000000000D+00
351  3.5000000000000D+00  0.0000000000000D+00  0.0000000000000D+00
352  3.5100000000000D+00  0.0000000000000D+00  0.0000000000000D+00
353  3.5200000000000D+00  0.0000000000000D+00  0.0000000000000D+00
354  3.5300000000000D+00  0.0000000000000D+00  0.0000000000000D+00
355  3.5400000000000D+00  0.0000000000000D+00  0.0000000000000D+00
356  3.5500000000000D+00  0.0000000000000D+00  0.0000000000000D+00
357  3.5600000000000D+00  0.0000000000000D+00  0.0000000000000D+00
358  3.5700000000000D+00  0.0000000000000D+00  0.0000000000000D+00
359  3.5800000000000D+00  0.0000000000000D+00  0.0000000000000D+00
360  3.5900000000000D+00  0.0000000000000D+00  0.0000000000000D+00
361  3.6000000000000D+00  0.0000000000000D+00  0.0000000000000D+00
362  3.6100000000000D+00  0.0000000000000D+00  0.0000000000000D+00
363  3.6200000000000D+00  0.0000000000000D+00  0.0000000000000D+00
364  3.6300000000000D+00  0.0000000000000D+00  0.0000000000000D+00
365  3.6400000000000D+00  0.0000000000000D+00  0.0000000000000D+00
366  3.6500000000000D+00  0.0000000000000D+00  0.0000000000000D+00
367  3.6600000000000D+00  0.0000000000000D+00  0.0000000000000D+00
368  3.6700000000000D+00  0.0000000000000D+00  0.0000000000000D+00
369  3.6800000000000D+00  0.0000000000000D+00  0.0000000000000D+00
370  3.6900000000000D+00  0.0000000000000D+00  0.0000000000000D+00
371  3.7000000000000D+00  0.0000000000000D+00  0.0000000000000D+00
372  3.7100000000000D+00  0.0000000000000D+00  0.0000000000000D+00
373  3.7200000000000D+00  0.0000000000000D+00  0.0000000000000D+00
374  3.7300000000000D+00  0.0000000000000D+00  0.0000000000000D+00
375  3.7400000000000D+00  0.0000000000000D+00  0.0000000000000D+00
376  3.7500000000000D+00  0.0000000000000D+00  0.0000000000000D+00
377  3.7600000000000D+00  0.0000000000000D+00  0.0000000000000D+00
378  3.7700000000000D+00  0.0000000000000D+00  0.0000000000000D+00
379  3.7800000000000D+00  0.0000000000000D+00  0.0000000000000D+00
380  3.7900000000000D+00  0.0000000000000D+00  0.0000000000000D+00
381  3.8000000000000D+00  0.0000000000000D+00  0.0000000000000D+00
382  3.8100000000000D+00  0.0000000000000D+00  0.0000000000000D+00
383  3.8200000000000D+00  0.0000000000000D+00  0.0000000000000D+00
384  3.8300000000000D+00  0.0000000000000D+00  0.0000000000000D+00
385  3.8400000000000D+00  0.0000000000000D+00  0.0000000000000D+00
386  3.8500000000000D+00  0.0000000000000D+00  0.0000000000000D+00
387  3.8600000000000D+00  0.0000000000000D+00  0.0000000000000D+00
388  3.8700000000000D+00  0.0000000000000D+00  0.0000000000000D+00
389  3.8800000000000D+00  0.0000000000000D+00  0.0000000000000D+00
390  3.8900000000000D+00  0.0000000000000D+00  0.0000000000000D+00
391  3.9000000000000D+00  0.0000000000000D+00  0.0000000000000D+00
392  3.9100000000000D+00  0.0000000000000D+00  0.0000000000000D+00
393  3.9200000000000D+00  0.0000000000000D+00  0.0000000000000D+00
394  3.9300000000000D+00  0.0000000000000D+00  0.0000000000000D+00
395  3.9400000000000D+00  0.0000000000000D+00  0.0000000000000D+00
396  3.9500000000000D+00  0.0000000000000D+00  0.0000000000000D+00
397  3.9600000000000D+00  0.0000000000000D+00  0.0000000000000D+00
398  3.9700000000000D+00  0.0000000000000D+00  0.0000000000000D+00
399  3.9800000000000D+00  0.0000000000000D+00  0.0000000000000D+00
400  3.9900000000000D+00  0.0000000000000D+00  0.0000000000000D+00
401  4.0000000000000D+00  0.0000000000000D+00  0.0000000000000D+00
402  4.0100000000000D+00  0.0000000000000D+00  0.0000000000000D+00
403  4.0200000000000D+00  0.0000000000000D+00  0.0000000000000D+00
404  4.0300000000000D+00  0.0000000000000D+00  0.0000000000000D+00
405  4.0400000000000D+00  0.0000000000000D+00  0.0000000000000D+00
406  4.0500000000000D+00  0.0000000000000D+00  0.0000000000000D+00
407  4.0600000000000D+00  0.0000000000000D+00  0.0000000000000D+00
408  4.0700000000000D+00  0.0000000000000D+00  0.0000000000000D+00
409  4.0800000000000D+00  0.0000000000000D+00  0.0000000000000D+00
410  4.0900000000000D+00  0.0000000000000D+00  0.0000000000000D+00
411  4.1000000000000D+00  0.0000000000000D+00  0.0000000000000D+00
412  4.1100000000000D+00  0.0000000000000D+00  0.0000000000000D+00
413  4.1200000000000D+00  0.0000000000000D+00  0.0000000000000D+00
414  4.1300000000000D+00  0.0000000000000D+00  0.0000000000000D+00
415  4.1400000000000D+00  0.0000000000000D+00  0.0000000000000D+00
416  4.1500000000000D+00  0.0000000000000D+00  0.0000000000000D+00
417  4.1600000000000D+00  0.0000000000000D+00  0.0000000000000D+00
418  4.1700000000000D+00  0.0000000000000D+00  0.0000000000000D+00
419  4.1800000000000D+00  0.0000000000000D+00  0.0000000000000D+00
420  4.1900000000000D+00  0.0000000000000D+00  0.0000000000000D+00
421  4.2000000000000D+00  0.0000000000000D+00  0.0000000000000D+00
422  4.2100000000000D+00  0.0000000000000D+00  0.0000000000000D+00
423  4.2200000000000D+00  0.0000000000000D+00  0.0000000000000D+00
424  4.2300000000000D+00  0.0000000000000D+00  0.0000000000000D+00
425  4.2400000000000D+00  0.0000000000000D+00  0.0000000000000D+00
426  4.2500000000000D+00  0.0000000000000D+00  0.0000000000000D+00
427  4.2600000000000D+00  0.0000000000000D+00  0.0000000000000D+00
428  4.2700000000000D+00  0.0000000000000D+00  0.0000000000000D+00
429  4.2800000000000D+00  0.0000000000000D+00  0.0000000000000D+00
430  4.2900000000000D+00  0.0000000000000D+00  0.0000000000000D+00
431  4.3000000000000D+00  0.0000000000000D+00  0.0000000000000D+00
432  4.3100000000000D+00  0.0000000000000D+00  0.0000000000000D+00
433  4.3200000000000D+00  0.0000000000000D+00  0.0000000000000D+00
434  4.3300000000000D+00  0.0000000000000D+00  0.0000000000000D+00
435  4.3400000000000D+00  0.0000000000000D+00  0.0000000000000D+00
436  4.3500000000000D+00  0.0000000000000D+00  0.0000000000000D+00
437  4.3600000000000D+00  0.0000000000000D+00  0.0000000000000D+00
438  4.3700000000000D+00  0.0000000000000D+00  0.0000000000000D+00
439  4.3800000000000D+00  0.0000000000000D+00  0.0000000000000D+00
440  4.3900000000000D+00  0.0000000000000D+00  0.0000000000000D+00
441  4.4000000000000D+00  0.0000000000000D+00  0.0000000000000D+00
442  4.4100000000000D+00  0.0000000000000D+00  0.0000000000000D+00
443  4.4200000000000D+00  0.0000000000000D+00  0.0000000000000D+00