La    ONCVPSP-3.3.0  r_core=   2.11664   1.60878   1.85636   1.66739
57.0000     11.0000      180429    zatom,zion,pspd
8 -116133   3     4   600     0    pspcod,pspxc,lmax,lloc,mmax,r2well
5.99000000  5.00000000  0.00000000    rchrg fchrg qchrg
2     4     3     2    nproj
3     1           extension_switch
4     4     4    nprojso
0                         6.3814239628159D-01  6.6959804298492D+00
1  0.0000000000000D+00  3.7561467824965D-11 -3.6584901774717D-12
2  1.0000000000000D-02 -1.0412134294446D-02  3.0997454257369D-02
3  2.0000000000000D-02 -2.0787513004685D-02  6.1979741226789D-02
4  3.0000000000000D-02 -3.1089591958355D-02  9.2931690555292D-02
5  4.0000000000000D-02 -4.1282248312857D-02  1.2383812571711D-01
6  5.0000000000000D-02 -5.1329987494887D-02  1.5468386082127D-01
7  6.0000000000000D-02 -6.1198145696154D-02  1.8545369729467D-01
8  7.0000000000000D-02 -7.0853086488135D-02  2.1613242040331D-01
9  8.0000000000000D-02 -8.0262390156308D-02  2.4670479557820D-01
10  9.0000000000000D-02 -8.9395034400868D-02  2.7715556451702D-01
11  1.0000000000000D-01 -9.8221565106341D-02  3.0746944103766D-01
12  1.1000000000000D-01 -1.0671425594634D-01  3.3763110666622D-01
13  1.2000000000000D-01 -1.1484725566183D-01  3.6762520594894D-01
14  1.3000000000000D-01 -1.2259672193113D-01  3.9743634148460D-01
15  1.4000000000000D-01 -1.2994094083706D-01  4.2704906868282D-01
16  1.5000000000000D-01 -1.3686043103084D-01  4.5644789026183D-01
17  1.6000000000000D-01 -1.4333803179301D-01  4.8561725050861D-01
18  1.7000000000000D-01 -1.4935897429793D-01  5.1454152933424D-01
19  1.8000000000000D-01 -1.5491093550011D-01  5.4320503616650D-01
20  1.9000000000000D-01 -1.5998407417736D-01  5.7159200373265D-01
21  2.0000000000000D-01 -1.6457104878541D-01  5.9968658179489D-01
22  2.1000000000000D-01 -1.6866701690313D-01  6.2747283091158D-01
23  2.2000000000000D-01 -1.7226961617308D-01  6.5493471630754D-01
24  2.3000000000000D-01 -1.7537892677048D-01  6.8205610194624D-01
25  2.4000000000000D-01 -1.7799741556280D-01  7.0882074490693D-01
26  2.5000000000000D-01 -1.8012986225152D-01  7.3521229017853D-01
27  2.6000000000000D-01 -1.8178326791630D-01  7.6121426599101D-01
28  2.7000000000000D-01 -1.8296674650954D-01  7.8681007981284D-01
29  2.8000000000000D-01 -1.8369139997416D-01  8.1198301515061D-01
30  2.9000000000000D-01 -1.8397017777978D-01  8.3671622929297D-01
31  3.0000000000000D-01 -1.8381772179072D-01  8.6099275214663D-01
32  3.1000000000000D-01 -1.8325019749254D-01  8.8479548631625D-01
33  3.2000000000000D-01 -1.8228511271207D-01  9.0810720858326D-01
34  3.3000000000000D-01 -1.8094112506694D-01  9.3091057294011D-01
35  3.4000000000000D-01 -1.7923783947555D-01  9.5318811533698D-01
36  3.5000000000000D-01 -1.7719559714435D-01  9.7492226029659D-01
37  3.6000000000000D-01 -1.7483525752736D-01  9.9609532955004D-01
38  3.7000000000000D-01 -1.7217797482124D-01  1.0166895528421D+00
39  3.8000000000000D-01 -1.6924497061762D-01  1.0366870810482D+00
40  3.9000000000000D-01 -1.6605730438239D-01  1.0560700017377D+00
41  4.0000000000000D-01 -1.6263564346831D-01  1.0748203573074D+00
42  4.1000000000000D-01 -1.5900003439267D-01  1.0929201657993D+00
43  4.2000000000000D-01 -1.5516967712503D-01  1.1103514445020D+00
44  4.3000000000000D-01 -1.5116270413098D-01  1.1270962364190D+00
45  4.4000000000000D-01 -1.4699596590651D-01  1.1431366396744D+00
46  4.5000000000000D-01 -1.4268482471338D-01  1.1584548399021D+00
47  4.6000000000000D-01 -1.3824295818931D-01  1.1730331456492D+00
48  4.7000000000000D-01 -1.3368217445664D-01  1.1868540267986D+00
49  4.8000000000000D-01 -1.2901224029225D-01  1.1999001559971D+00
50  4.9000000000000D-01 -1.2424072384599D-01  1.2121544530439D+00
51  5.0000000000000D-01 -1.1937285330923D-01  1.2236001321769D+00
52  5.1000000000000D-01 -1.1441139283754D-01  1.2342207521589D+00
53  5.2000000000000D-01 -1.0935653692193D-01  1.2440002690448D+00
54  5.3000000000000D-01 -1.0420582428490D-01  1.2529230914789D+00
55  5.4000000000000D-01 -9.8954072248067D-02  1.2609741383440D+00
56  5.5000000000000D-01 -9.3593332381114D-02  1.2681388985533D+00
57  5.6000000000000D-01 -8.8112868096570D-02  1.2744034927520D+00
58  5.7000000000000D-01 -8.2499154702547D-02  1.2797547366605D+00
59  5.8000000000000D-01 -7.6735902268465D-02  1.2841802057684D+00
60  5.9000000000000D-01 -7.0804101496008D-02  1.2876683010607D+00
61  6.0000000000000D-01 -6.4682092622857D-02  1.2902083154294D+00
62  6.1000000000000D-01 -5.8345657219075D-02  1.2917905004037D+00
63  6.2000000000000D-01 -5.1768132568479D-02  1.2924061328074D+00
64  6.3000000000000D-01 -4.4920548160600D-02  1.2920475809316D+00
65  6.4000000000000D-01 -3.7771783654051D-02  1.2907083697970D+00
66  6.5000000000000D-01 -3.0288747512012D-02  1.2883832450606D+00
67  6.6000000000000D-01 -2.2436575354262D-02  1.2850682351148D+00
68  6.7000000000000D-01 -1.4178846922233D-02  1.2807607109158D+00
69  6.8000000000000D-01 -5.4778204123281D-03  1.2754594430741D+00
70  6.9000000000000D-01  3.7053171982551D-03  1.2691646557423D+00
71  7.0000000000000D-01  1.3410185329594D-02  1.2618780768341D+00
72  7.1000000000000D-01  2.3676932086026D-02  1.2536029841206D+00
73  7.2000000000000D-01  3.4545945352148D-02  1.2443442467602D+00
74  7.3000000000000D-01  4.6057554479889D-02  1.2341083618363D+00
75  7.4000000000000D-01  5.8251724414649D-02  1.2229034854971D+00
76  7.5000000000000D-01  7.1167744159280D-02  1.2107394583200D+00
77  7.6000000000000D-01  8.4843911509055D-02  1.1976278245528D+00
78  7.7000000000000D-01  9.9317216007928D-02  1.1835818449193D+00
79  7.8000000000000D-01  1.1462302207757D-01  1.1686165027179D+00
80  7.9000000000000D-01  1.3079475425326D-01  1.1527485029846D+00
81  8.0000000000000D-01  1.4786358642786D-01  1.1359962645421D+00
82  8.1000000000000D-01  1.6585813695474D-01  1.1183799048059D+00
83  8.2000000000000D-01  1.8480417139444D-01  1.0999212172787D+00
84  8.3000000000000D-01  2.0472431460867D-01  1.0806436417159D+00
85  8.4000000000000D-01  2.2563777380969D-01  1.0605722270141D+00
86  8.5000000000000D-01  2.4756007406454D-01  1.0397335869311D+00
87  8.6000000000000D-01  2.7050280763373D-01  1.0181558488142D+00
88  8.7000000000000D-01  2.9447339839383D-01  9.9586859557795D-01
89  8.8000000000000D-01  3.1947488245549D-01  9.7290280123655D-01
90  8.9000000000000D-01  3.4550570594424D-01  9.4929076036462D-01
91  9.0000000000000D-01  3.7255954076349D-01  9.2506601191890D-01
92  9.1000000000000D-01  4.0062511900952D-01  9.0026325791823D-01
93  9.2000000000000D-01  4.2968608655979D-01  8.7491827753556D-01
94  9.3000000000000D-01  4.5972087621057D-01  8.4906783721054D-01
95  9.4000000000000D-01  4.9070260060066D-01  8.2274959744052D-01
96  9.5000000000000D-01  5.2259896502787D-01  7.9600201695174D-01
97  9.6000000000000D-01  5.5537220014584D-01  7.6886425498948D-01
98  9.7000000000000D-01  5.8897901442390D-01  7.4137607249574D-01
99  9.8000000000000D-01  6.2337056616376D-01  7.1357773296499D-01
100  9.9000000000000D-01  6.5849245479777D-01  6.8550990378064D-01
101  1.0000000000000D+00  6.9428473114536D-01  6.5721355883777D-01
102  1.0100000000000D+00  7.3068192627899D-01  6.2872988325023D-01
103  1.0200000000000D+00  7.6761309865104D-01  6.0010018092128D-01
104  1.0300000000000D+00  8.0500189916275D-01  5.7136578572563D-01
105  1.0400000000000D+00  8.4276665390418D-01  5.4256797701192D-01
106  1.0500000000000D+00  8.8082046438498D-01  5.1374790007581D-01
107  1.0600000000000D+00  9.1907132518319D-01  4.8494649218995D-01
108  1.0700000000000D+00  9.5742225907931D-01  4.5620441469779D-01
109  1.0800000000000D+00  9.9577146992449D-01  4.2756199158003D-01
110  1.0900000000000D+00  1.0340125136573D+00  3.9905915481422D-01
111  1.1000000000000D+00  1.0720344881376D+00  3.7073539671567D-01
112  1.1100000000000D+00  1.1097222426859D+00  3.4262972933263D-01
113  1.1200000000000D+00  1.1469566084965D+00  3.1478065082480D-01
114  1.1300000000000D+00  1.1836146513494D+00  2.8722611861730D-01
115  1.1400000000000D+00  1.2195699483321D+00  2.6000352897201D-01
116  1.1500000000000D+00  1.2546928906017D+00  2.3314970244511D-01
117  1.1600000000000D+00  1.2888510144925D+00  2.0670087454132D-01
118  1.1700000000000D+00  1.3219093635320D+00  1.8069269072534D-01
119  1.1800000000000D+00  1.3537308842186D+00  1.5516020477394D-01
120  1.1900000000000D+00  1.3841768586680D+00  1.3013787927955D-01
121  1.2000000000000D+00  1.4131073774148D+00  1.0565958695307D-01
122  1.2100000000000D+00  1.4403818557914D+00  8.1758611281362D-02
123  1.2200000000000D+00  1.4658595974989D+00  5.8467644864473D-02
124  1.2300000000000D+00  1.4894004089128D+00  3.5818783685984D-02
125  1.2400000000000D+00  1.5108652676740D+00  1.3843515475727D-02
126  1.2500000000000D+00  1.5301170490444D+00 -7.4272998074888D-03
127  1.2600000000000D+00  1.5470213130825D+00 -2.7963459382714D-02
128  1.2700000000000D+00  1.5614471554280D+00 -4.7735458958816D-02
129  1.2800000000000D+00  1.5732681242017D+00 -6.6714548031131D-02
130  1.2900000000000D+00  1.5823632042776D+00 -8.4872801117381D-02
131  1.3000000000000D+00  1.5886178698374D+00 -1.0218320683135D-01
132  1.3100000000000D+00  1.5919252054053D+00 -1.1861977666529D-01
133  1.3200000000000D+00  1.5921870929226D+00 -1.3415767489086D-01
134  1.3300000000000D+00  1.5893154627467D+00 -1.4877337104128D-01
135  1.3400000000000D+00  1.5832336042525D+00 -1.6244481609722D-01
136  1.3500000000000D+00  1.5738775273962D+00 -1.7515164256850D-01
137  1.3600000000000D+00  1.5611973694691D+00 -1.8687538929775D-01
138  1.3700000000000D+00  1.5451588335726D+00 -1.9759975021259D-01
139  1.3800000000000D+00  1.5257446434608D+00 -2.0731084574291D-01
140  1.3900000000000D+00  1.5029560019392D+00 -2.1599751629453D-01
141  1.4000000000000D+00  1.4768140251439D+00 -2.2365163371173D-01
142  1.4100000000000D+00  1.4473611329902D+00 -2.3026842849496D-01
143  1.4200000000000D+00  1.4146623655996D+00 -2.3584682814829D-01
144  1.4300000000000D+00  1.3788065849556D+00 -2.4038979936003D-01
145  1.4400000000000D+00  1.3399075355936D+00 -2.4390469037972D-01
146  1.4500000000000D+00  1.2981047020867D+00 -2.4640356102906D-01
147  1.4600000000000D+00  1.2535639264358D+00 -2.4790349405482D-01
148  1.4700000000000D+00  1.2064777195189D+00 -2.4842687437220D-01
149  1.4800000000000D+00  1.1570651958953D+00 -2.4800162138127D-01
150  1.4900000000000D+00  1.1055715777872D+00 -2.4666136389014D-01
151  1.5000000000000D+00  1.0522671498039D+00 -2.4444553061877D-01
152  1.5100000000000D+00  9.9744562026034D-01 -2.4139934842789D-01
153  1.5200000000000D+00  9.4142173659977D-01 -2.3757371244625D-01
154  1.5300000000000D+00  8.8452808434596D-01 -2.3302491343325D-01
155  1.5400000000000D+00  8.2711091861724D-01 -2.2781418691543D-01
156  1.5500000000000D+00  7.6952489776449D-01 -2.2200705387090D-01
157  1.5600000000000D+00  7.1212648158267D-01 -2.1567240763516D-01
158  1.5700000000000D+00  6.5526650057633D-01 -2.0888139616607D-01
159  1.5800000000000D+00  5.9927884961085D-01 -2.0170565527343D-01
160  1.5900000000000D+00  5.4447452021571D-01 -1.9421621726155D-01
161  1.6000000000000D+00  4.9112174450063D-01 -1.8648018538441D-01
162  1.6100000000000D+00  4.3942425316069D-01 -1.7855722666528D-01
163  1.6200000000000D+00  3.8953502181434D-01 -1.7050051544232D-01
164  1.6300000000000D+00  3.4156242806934D-01 -1.6235668343828D-01
165  1.6400000000000D+00  2.9559271456490D-01 -1.5416872853490D-01
166  1.6500000000000D+00  2.5171185342156D-01 -1.4597873630597D-01
167  1.6600000000000D+00  2.0999542667413D-01 -1.3782645308457D-01
168  1.6700000000000D+00  1.7050665428617D-01 -1.2974902921512D-01
169  1.6800000000000D+00  1.3329909968790D-01 -1.2178126627608D-01
170  1.6900000000000D+00  9.8415132284662D-02 -1.1395537178925D-01
171  1.7000000000000D+00  6.5886244362455D-02 -1.0630095204718D-01
172  1.7100000000000D+00  3.5732851171066D-02 -9.8844945511474D-02
173  1.7200000000000D+00  7.9642605564050D-03 -9.1611585778339D-02
174  1.7300000000000D+00 -1.7421295726982D-02 -8.4622379846293D-02
175  1.7400000000000D+00 -4.0436564520837D-02 -7.7896102736694D-02
176  1.7500000000000D+00 -6.1105112865893D-02 -7.1448807235865D-02
177  1.7600000000000D+00 -7.9461103716385D-02 -6.5293849925142D-02
178  1.7700000000000D+00 -9.5549013326423D-02 -5.9441931730307D-02
179  1.7800000000000D+00 -1.0942328449909D-01 -5.3901154355411D-02
180  1.7900000000000D+00 -1.2114792572160D-01 -4.8677090247457D-02
181  1.8000000000000D+00 -1.3079604973649D-01 -4.3772867615117D-02
182  1.8100000000000D+00 -1.3844936289503D-01 -3.9189267828828D-02
183  1.8200000000000D+00 -1.4419760020510D-01 -3.4924836411328D-02
184  1.8300000000000D+00 -1.4813791629979D-01 -3.0976005203629D-02
185  1.8400000000000D+00 -1.5037423046042D-01 -2.7337226158894D-02
186  1.8500000000000D+00 -1.5101653347206D-01 -2.4001114924608D-02
187  1.8600000000000D+00 -1.5018015826057D-01 -2.0958603762679D-02
188  1.8700000000000D+00 -1.4798501934085D-01 -1.8199102621038D-02
189  1.8800000000000D+00 -1.4455482648952D-01 -1.5710667078949D-02
190  1.8900000000000D+00 -1.4001627539918D-01 -1.3480172521108D-02
191  1.9000000000000D+00 -1.3449822288983D-01 -1.1493492740667D-02
192  1.9100000000000D+00 -1.2813084940721D-01 -9.7356823605643D-03
193  1.9200000000000D+00 -1.2104481590943D-01 -8.1911613698726D-03
194  1.9300000000000D+00 -1.1337041843427D-01 -6.8439009835225D-03
195  1.9400000000000D+00 -1.0523674624271D-01 -5.6776094455177D-03
196  1.9500000000000D+00 -9.6770849744169D-02 -4.6759163288631D-03
197  1.9600000000000D+00 -8.8096922255989D-02 -3.8225543589743D-03
198  1.9700000000000D+00 -7.9335500328666D-02 -3.1015376326962D-03
199  1.9800000000000D+00 -7.0602690842720D-02 -2.4973343187938D-03
200  1.9900000000000D+00 -6.2009423884676D-02 -1.9950340625813D-03
201  2.0000000000000D+00 -5.3660742296302D-02 -1.5805074545208D-03
202  2.0100000000000D+00 -4.5655125193009D-02 -1.2405582555022D-03
203  2.0200000000000D+00 -3.8083856989444D-02 -9.6306566142412D-04
204  2.0300000000000D+00 -3.1030442967907D-02 -7.3711634759081D-04
205  2.0400000000000D+00 -2.4570070743322D-02 -5.5312642152881D-04
206  2.0500000000000D+00 -1.8773848580294D-02 -4.0305099913125D-04
207  2.0600000000000D+00 -1.3689681042735D-02 -2.8008084717822D-04
208  2.0700000000000D+00 -9.3513009357493D-03 -1.7913350940761D-04
209  2.0800000000000D+00 -5.8077388413271D-03 -9.7089201050913D-05
210  2.0900000000000D+00 -3.1475727923657D-03 -3.2771914703521D-05
211  2.1000000000000D+00 -1.4168906921713D-03  1.4822185742411D-05
212  2.1100000000000D+00 -4.5757145574069D-04  4.1629574520750D-05
213  2.1200000000000D+00 -4.3634291007254D-05  4.4156938920227D-05
214  2.1300000000000D+00  5.5661555103741D-05  2.6073795862908D-05
215  2.1400000000000D+00  1.3093796752988D-05  3.8400539715072D-06
216  2.1500000000000D+00 -2.3759170135837D-05 -5.7275465961903D-06
217  2.1600000000000D+00 -2.0608698308441D-05 -4.3743610712254D-06
218  2.1700000000000D+00  1.2666738508018D-06  4.3465580556719D-07
219  2.1800000000000D+00  4.2441385526393D-06  1.3215815308709D-06
220  2.1900000000000D+00  1.8160333601639D-06  5.2682613674861D-07
221  2.2000000000000D+00  2.9211236508531D-07 -9.7909266630445D-08
222  2.2100000000000D+00  3.5890412167678D-07 -1.2029630903764D-07
223  2.2200000000000D+00  3.8058159740236D-09 -1.2756209441468D-09
224  2.2300000000000D+00  0.0000000000000D+00  0.0000000000000D+00
225  2.2400000000000D+00  0.0000000000000D+00  0.0000000000000D+00
226  2.2500000000000D+00  0.0000000000000D+00  0.0000000000000D+00
227  2.2600000000000D+00  0.0000000000000D+00  0.0000000000000D+00
228  2.2700000000000D+00  0.0000000000000D+00  0.0000000000000D+00
229  2.2800000000000D+00  0.0000000000000D+00  0.0000000000000D+00
230  2.2900000000000D+00  0.0000000000000D+00  0.0000000000000D+00
231  2.3000000000000D+00  0.0000000000000D+00  0.0000000000000D+00
232  2.3100000000000D+00  0.0000000000000D+00  0.0000000000000D+00
233  2.3200000000000D+00  0.0000000000000D+00  0.0000000000000D+00
234  2.3300000000000D+00  0.0000000000000D+00  0.0000000000000D+00
235  2.3400000000000D+00  0.0000000000000D+00  0.0000000000000D+00
236  2.3500000000000D+00  0.0000000000000D+00  0.0000000000000D+00
237  2.3600000000000D+00  0.0000000000000D+00  0.0000000000000D+00
238  2.3700000000000D+00  0.0000000000000D+00  0.0000000000000D+00
239  2.3800000000000D+00  0.0000000000000D+00  0.0000000000000D+00
240  2.3900000000000D+00  0.0000000000000D+00  0.0000000000000D+00
241  2.4000000000000D+00  0.0000000000000D+00  0.0000000000000D+00
242  2.4100000000000D+00  0.0000000000000D+00  0.0000000000000D+00
243  2.4200000000000D+00  0.0000000000000D+00  0.0000000000000D+00
244  2.4300000000000D+00  0.0000000000000D+00  0.0000000000000D+00
245  2.4400000000000D+00  0.0000000000000D+00  0.0000000000000D+00
246  2.4500000000000D+00  0.0000000000000D+00  0.0000000000000D+00
247  2.4600000000000D+00  0.0000000000000D+00  0.0000000000000D+00
248  2.4700000000000D+00  0.0000000000000D+00  0.0000000000000D+00
249  2.4800000000000D+00  0.0000000000000D+00  0.0000000000000D+00
250  2.4900000000000D+00  0.0000000000000D+00  0.0000000000000D+00
251  2.5000000000000D+00  0.0000000000000D+00  0.0000000000000D+00
252  2.5100000000000D+00  0.0000000000000D+00  0.0000000000000D+00
253  2.5200000000000D+00  0.0000000000000D+00  0.0000000000000D+00
254  2.5300000000000D+00  0.0000000000000D+00  0.0000000000000D+00
255  2.5400000000000D+00  0.0000000000000D+00  0.0000000000000D+00
256  2.5500000000000D+00  0.0000000000000D+00  0.0000000000000D+00
257  2.5600000000000D+00  0.0000000000000D+00  0.0000000000000D+00
258  2.5700000000000D+00  0.0000000000000D+00  0.0000000000000D+00
259  2.5800000000000D+00  0.0000000000000D+00  0.0000000000000D+00
260  2.5900000000000D+00  0.0000000000000D+00  0.0000000000000D+00
261  2.6000000000000D+00  0.0000000000000D+00  0.0000000000000D+00
262  2.6100000000000D+00  0.0000000000000D+00  0.0000000000000D+00
263  2.6200000000000D+00  0.0000000000000D+00  0.0000000000000D+00
264  2.6300000000000D+00  0.0000000000000D+00  0.0000000000000D+00
265  2.6400000000000D+00  0.0000000000000D+00  0.0000000000000D+00
266  2.6500000000000D+00  0.0000000000000D+00  0.0000000000000D+00
267  2.6600000000000D+00  0.0000000000000D+00  0.0000000000000D+00
268  2.6700000000000D+00  0.0000000000000D+00  0.0000000000000D+00
269  2.6800000000000D+00  0.0000000000000D+00  0.0000000000000D+00
270  2.6900000000000D+00  0.0000000000000D+00  0.0000000000000D+00
271  2.7000000000000D+00  0.0000000000000D+00  0.0000000000000D+00
272  2.7100000000000D+00  0.0000000000000D+00  0.0000000000000D+00
273  2.7200000000000D+00  0.0000000000000D+00  0.0000000000000D+00
274  2.7300000000000D+00  0.0000000000000D+00  0.0000000000000D+00
275  2.7400000000000D+00  0.0000000000000D+00  0.0000000000000D+00
276  2.7500000000000D+00  0.0000000000000D+00  0.0000000000000D+00
277  2.7600000000000D+00  0.0000000000000D+00  0.0000000000000D+00
278  2.7700000000000D+00  0.0000000000000D+00  0.0000000000000D+00
279  2.7800000000000D+00  0.0000000000000D+00  0.0000000000000D+00
280  2.7900000000000D+00  0.0000000000000D+00  0.0000000000000D+00
281  2.8000000000000D+00  0.0000000000000D+00  0.0000000000000D+00
282  2.8100000000000D+00  0.0000000000000D+00  0.0000000000000D+00
283  2.8200000000000D+00  0.0000000000000D+00  0.0000000000000D+00
284  2.8300000000000D+00  0.0000000000000D+00  0.0000000000000D+00
285  2.8400000000000D+00  0.0000000000000D+00  0.0000000000000D+00
286  2.8500000000000D+00  0.0000000000000D+00  0.0000000000000D+00
287  2.8600000000000D+00  0.0000000000000D+00  0.0000000000000D+00
288  2.8700000000000D+00  0.0000000000000D+00  0.0000000000000D+00
289  2.8800000000000D+00  0.0000000000000D+00  0.0000000000000D+00
290  2.8900000000000D+00  0.0000000000000D+00  0.0000000000000D+00
291  2.9000000000000D+00  0.0000000000000D+00  0.0000000000000D+00
292  2.9100000000000D+00  0.0000000000000D+00  0.0000000000000D+00
293  2.9200000000000D+00  0.0000000000000D+00  0.0000000000000D+00
294  2.9300000000000D+00  0.0000000000000D+00  0.0000000000000D+00
295  2.9400000000000D+00  0.0000000000000D+00  0.0000000000000D+00
296  2.9500000000000D+00  0.0000000000000D+00  0.0000000000000D+00
297  2.9600000000000D+00  0.0000000000000D+00  0.0000000000000D+00
298  2.9700000000000D+00  0.0000000000000D+00  0.0000000000000D+00
299  2.9800000000000D+00  0.0000000000000D+00  0.0000000000000D+00
300  2.9900000000000D+00  0.0000000000000D+00  0.0000000000000D+00
301  3.0000000000000D+00  0.0000000000000D+00  0.0000000000000D+00
302  3.0100000000000D+00  0.0000000000000D+00  0.0000000000000D+00
303  3.0200000000000D+00  0.0000000000000D+00  0.0000000000000D+00
304  3.0300000000000D+00  0.0000000000000D+00  0.0000000000000D+00
305  3.0400000000000D+00  0.0000000000000D+00  0.0000000000000D+00
306  3.0500000000000D+00  0.0000000000000D+00  0.0000000000000D+00
307  3.0600000000000D+00  0.0000000000000D+00  0.0000000000000D+00
308  3.0700000000000D+00  0.0000000000000D+00  0.0000000000000D+00
309  3.0800000000000D+00  0.0000000000000D+00  0.0000000000000D+00
310  3.0900000000000D+00  0.0000000000000D+00  0.0000000000000D+00
311  3.1000000000000D+00  0.0000000000000D+00  0.0000000000000D+00
312  3.1100000000000D+00  0.0000000000000D+00  0.0000000000000D+00
313  3.1200000000000D+00  0.0000000000000D+00  0.0000000000000D+00
314  3.1300000000000D+00  0.0000000000000D+00  0.0000000000000D+00
315  3.1400000000000D+00  0.0000000000000D+00  0.0000000000000D+00
316  3.1500000000000D+00  0.0000000000000D+00  0.0000000000000D+00
317  3.1600000000000D+00  0.0000000000000D+00  0.0000000000000D+00
318  3.1700000000000D+00  0.0000000000000D+00  0.0000000000000D+00
319  3.1800000000000D+00  0.0000000000000D+00  0.0000000000000D+00
320  3.1900000000000D+00  0.0000000000000D+00  0.0000000000000D+00
321  3.2000000000000D+00  0.0000000000000D+00  0.0000000000000D+00
322  3.2100000000000D+00  0.0000000000000D+00  0.0000000000000D+00
323  3.2200000000000D+00  0.0000000000000D+00  0.0000000000000D+00
324  3.2300000000000D+00  0.0000000000000D+00  0.0000000000000D+00
325  3.2400000000000D+00  0.0000000000000D+00  0.0000000000000D+00
326  3.2500000000000D+00  0.0000000000000D+00  0.0000000000000D+00
327  3.2600000000000D+00  0.0000000000000D+00  0.0000000000000D+00
328  3.2700000000000D+00  0.0000000000000D+00  0.0000000000000D+00
329  3.2800000000000D+00  0.0000000000000D+00  0.0000000000000D+00
330  3.2900000000000D+00  0.0000000000000D+00  0.0000000000000D+00
331  3.3000000000000D+00  0.0000000000000D+00  0.0000000000000D+00
332  3.3100000000000D+00  0.0000000000000D+00  0.0000000000000D+00
333  3.3200000000000D+00  0.0000000000000D+00  0.0000000000000D+00
334  3.3300000000000D+00  0.0000000000000D+00  0.0000000000000D+00
335  3.3400000000000D+00  0.0000000000000D+00  0.0000000000000D+00
336  3.3500000000000D+00  0.0000000000000D+00  0.0000000000000D+00
337  3.3600000000000D+00  0.0000000000000D+00  0.0000000000000D+00
338  3.3700000000000D+00  0.0000000000000D+00  0.0000000000000D+00
339  3.3800000000000D+00  0.0000000000000D+00  0.0000000000000D+00
340  3.3900000000000D+00  0.0000000000000D+00  0.0000000000000D+00
341  3.4000000000000D+00  0.0000000000000D+00  0.0000000000000D+00
342  3.4100000000000D+00  0.0000000000000D+00  0.0000000000000D+00
343  3.4200000000000D+00  0.0000000000000D+00  0.0000000000000D+00
344  3.4300000000000D+00  0.0000000000000D+00  0.0000000000000D+00
345  3.4400000000000D+00  0.0000000000000D+00  0.0000000000000D+00
346  3.4500000000000D+00  0.0000000000000D+00  0.0000000000000D+00
347  3.4600000000000D+00  0.0000000000000D+00  0.0000000000000D+00
348  3.4700000000000D+00  0.0000000000000D+00  0.0000000000000D+00
349  3.4800000000000D+00  0.0000000000000D+00  0.0000000000000D+00
350  3.4900000000000D+00  0.0000000000000D+00  0.0000000000000D+00
351  3.5000000000000D+00  0.0000000000000D+00  0.0000000000000D+00
352  3.5100000000000D+00  0.0000000000000D+00  0.0000000000000D+00
353  3.5200000000000D+00  0.0000000000000D+00  0.0000000000000D+00
354  3.5300000000000D+00  0.0000000000000D+00  0.0000000000000D+00
355  3.5400000000000D+00  0.0000000000000D+00  0.0000000000000D+00
356  3.5500000000000D+00  0.0000000000000D+00  0.0000000000000D+00
357  3.5600000000000D+00  0.0000000000000D+00  0.0000000000000D+00
358  3.5700000000000D+00  0.0000000000000D+00  0.0000000000000D+00
359  3.5800000000000D+00  0.0000000000000D+00  0.0000000000000D+00
360  3.5900000000000D+00  0.0000000000000D+00  0.0000000000000D+00
361  3.6000000000000D+00  0.0000000000000D+00  0.0000000000000D+00
362  3.6100000000000D+00  0.0000000000000D+00  0.0000000000000D+00
363  3.6200000000000D+00  0.0000000000000D+00  0.0000000000000D+00
364  3.6300000000000D+00  0.0000000000000D+00  0.0000000000000D+00
365  3.6400000000000D+00  0.0000000000000D+00  0.0000000000000D+00
366  3.6500000000000D+00  0.0000000000000D+00  0.0000000000000D+00
367  3.6600000000000D+00  0.0000000000000D+00  0.0000000000000D+00
368  3.6700000000000D+00  0.0000000000000D+00  0.0000000000000D+00
369  3.6800000000000D+00  0.0000000000000D+00  0.0000000000000D+00
370  3.6900000000000D+00  0.0000000000000D+00  0.0000000000000D+00
371  3.7000000000000D+00  0.0000000000000D+00  0.0000000000000D+00
372  3.7100000000000D+00  0.0000000000000D+00  0.0000000000000D+00
373  3.7200000000000D+00  0.0000000000000D+00  0.0000000000000D+00
374  3.7300000000000D+00  0.0000000000000D+00  0.0000000000000D+00
375  3.7400000000000D+00  0.0000000000000D+00  0.0000000000000D+00
376  3.7500000000000D+00  0.0000000000000D+00  0.0000000000000D+00
377  3.7600000000000D+00  0.0000000000000D+00  0.0000000000000D+00
378  3.7700000000000D+00  0.0000000000000D+00  0.0000000000000D+00
379  3.7800000000000D+00  0.0000000000000D+00  0.0000000000000D+00
380  3.7900000000000D+00  0.0000000000000D+00  0.0000000000000D+00
381  3.8000000000000D+00  0.0000000000000D+00  0.0000000000000D+00
382  3.8100000000000D+00  0.0000000000000D+00  0.0000000000000D+00
383  3.8200000000000D+00  0.0000000000000D+00  0.0000000000000D+00
384  3.8300000000000D+00  0.0000000000000D+00  0.0000000000000D+00
385  3.8400000000000D+00  0.0000000000000D+00  0.0000000000000D+00
386  3.8500000000000D+00  0.0000000000000D+00  0.0000000000000D+00
387  3.8600000000000D+00  0.0000000000000D+00  0.0000000000000D+00
388  3.8700000000000D+00  0.0000000000000D+00  0.0000000000000D+00
389  3.8800000000000D+00  0.0000000000000D+00  0.0000000000000D+00
390  3.8900000000000D+00  0.0000000000000D+00  0.0000000000000D+00
391  3.9000000000000D+00  0.0000000000000D+00  0.0000000000000D+00
392  3.9100000000000D+00  0.0000000000000D+00  0.0000000000000D+00
393  3.9200000000000D+00  0.0000000000000D+00  0.0000000000000D+00
394  3.9300000000000D+00  0.0000000000000D+00  0.0000000000000D+00
395  3.9400000000000D+00  0.0000000000000D+00  0.0000000000000D+00
396  3.9500000000000D+00  0.0000000000000D+00  0.0000000000000D+00
397  3.9600000000000D+00  0.0000000000000D+00  0.0000000000000D+00
398  3.9700000000000D+00  0.0000000000000D+00  0.0000000000000D+00
399  3.9800000000000D+00  0.0000000000000D+00  0.0000000000000D+00
400  3.9900000000000D+00  0.0000000000000D+00  0.0000000000000D+00
401  4.0000000000000D+00  0.0000000000000D+00  0.0000000000000D+00
402  4.0100000000000D+00  0.0000000000000D+00  0.0000000000000D+00
403  4.0200000000000D+00  0.0000000000000D+00  0.0000000000000D+00
404  4.0300000000000D+00  0.0000000000000D+00  0.0000000000000D+00
405  4.0400000000000D+00  0.0000000000000D+00  0.0000000000000D+00
406  4.0500000000000D+00  0.0000000000000D+00  0.0000000000000D+00
407  4.0600000000000D+00  0.0000000000000D+00  0.0000000000000D+00
408  4.0700000000000D+00  0.0000000000000D+00  0.0000000000000D+00
409  4.0800000000000D+00  0.0000000000000D+00  0.0000000000000D+00
410  4.0900000000000D+00  0.0000000000000D+00  0.0000000000000D+00
411  4.1000000000000D+00  0.0000000000000D+00  0.0000000000000D+00
412  4.1100000000000D+00  0.0000000000000D+00  0.0000000000000D+00
413  4.1200000000000D+00  0.0000000000000D+00  0.0000000000000D+00
414  4.1300000000000D+00  0.0000000000000D+00  0.0000000000000D+00
415  4.1400000000000D+00  0.0000000000000D+00  0.0000000000000D+00
416  4.1500000000000D+00  0.0000000000000D+00  0.0000000000000D+00
417  4.1600000000000D+00  0.0000000000000D+00  0.0000000000000D+00
418  4.1700000000000D+00  0.0000000000000D+00  0.0000000000000D+00
419  4.1800000000000D+00  0.0000000000000D+00  0.0000000000000D+00
420  4.1900000000000D+00  0.0000000000000D+00  0.0000000000000D+00
421  4.2000000000000D+00  0.0000000000000D+00  0.0000000000000D+00
422  4.2100000000000D+00  0.0000000000000D+00  0.0000000000000D+00
423  4.2200000000000D+00  0.0000000000000D+00  0.0000000000000D+00
424  4.2300000000000D+00  0.0000000000000D+00  0.0000000000000D+00
425  4.2400000000000D+00  0.0000000000000D+00  0.0000000000000D+00
426  4.2500000000000D+00  0.0000000000000D+00  0.0000000000000D+00
427  4.2600000000000D+00  0.0000000000000D+00  0.0000000000000D+00
428  4.2700000000000D+00  0.0000000000000D+00  0.0000000000000D+00
429  4.2800000000000D+00  0.0000000000000D+00  0.0000000000000D+00
430  4.2900000000000D+00  0.0000000000000D+00  0.0000000000000D+00
431  4.3000000000000D+00  0.0000000000000D+00  0.0000000000000D+00
432  4.3100000000000D+00  0.0000000000000D+00  0.0000000000000D+00
433  4.3200000000000D+00  0.0000000000000D+00  0.0000000000000D+00
434  4.3300000000000D+00  0.0000000000000D+00  0.0000000000000D+00
435  4.3400000000000D+00  0.0000000000000D+00  0.0000000000000D+00
436  4.3500000000000D+00  0.0000000000000D+00  0.0000000000000D+00
437  4.3600000000000D+00  0.0000000000000D+00  0.0000000000000D+00
438  4.3700000000000D+00  0.0000000000000D+00  0.0000000000000D+00
439  4.3800000000000D+00  0.0000000000000D+00  0.0000000000000D+00
440  4.3900000000000D+00  0.0000000000000D+00  0.0000000000000D+00
441  4.4000000000000D+00  0.0000000000000D+00  0.0000000000000D+00
442  4.4100000000000D+00  0.0000000000000D+00  0.0000000000000D+00
443  4.4200000000000D+00  0.0000000000000D+00  0.0000000000000D+00