Li    ONCVPSP-3.3.0  r_core=   1.20595   1.00838
3.0000      3.0000      180429    zatom,zion,pspd
8 -116133   1     4   400     0    pspcod,pspxc,lmax,lloc,mmax,r2well
3.99000000  0.00000000  0.00000000    rchrg fchrg qchrg
2     2     0     0    nproj
3     1           extension_switch
3     0     0    nprojso
0                        -5.3647399089995D+00 -1.5359368263721D+00
1  0.0000000000000D+00 -3.6593286178999D-09  1.1149085210604D-08
2  1.0000000000000D-02  1.1603684528088D-01 -5.1969541456198D-02
3  2.0000000000000D-02  2.3155952584427D-01 -1.0328392497981D-01
4  3.0000000000000D-02  3.4605780246607D-01 -1.5329642993420D-01
5  4.0000000000000D-02  4.5902923460528D-01 -2.0137706384940D-01
6  5.0000000000000D-02  5.6998294994969D-01 -2.4692056338059D-01
7  6.0000000000000D-02  6.7844326088440D-01 -2.8935396768302D-01
8  7.0000000000000D-02  7.8395308126187D-01 -3.2814363510375D-01
9  8.0000000000000D-02  8.8607710051139D-01 -3.6280158523931D-01
10  9.0000000000000D-02  9.8440467655840D-01 -3.9289106190302D-01
11  1.0000000000000D-01  1.0785524141380D+00 -4.1803122810376D-01
12  1.1000000000000D-01  1.1681664007801D+00 -4.3790092143597D-01
13  1.2000000000000D-01  1.2529240788991D+00 -4.5224141695839D-01
14  1.3000000000000D-01  1.3325357389125D+00 -4.6085816430603D-01
15  1.4000000000000D-01  1.4067456250102D+00 -4.6362148602769D-01
16  1.5000000000000D-01  1.4753326519653D+00 -4.6046624454633D-01
17  1.6000000000000D-01  1.5381107380741D+00 -4.5139050527807D-01
18  1.7000000000000D-01  1.5949287658126D+00 -4.3645324289578D-01
19  1.8000000000000D-01  1.6456701879583D+00 -4.1577115608204D-01
20  1.9000000000000D-01  1.6902523026373D+00 -3.8951467299905D-01
21  2.0000000000000D-01  1.7286252258897D+00 -3.5790324476034D-01
22  2.1000000000000D-01  1.7607705948169D+00 -3.2120003710655D-01
23  2.2000000000000D-01  1.7867000380798D+00 -2.7970614099835D-01
24  2.3000000000000D-01  1.8064534533985D+00 -2.3375443072566D-01
25  2.4000000000000D-01  1.8200971337023D+00 -1.8370320323345D-01
26  2.5000000000000D-01  1.8277217846607D+00 -1.2992973457710D-01
27  2.6000000000000D-01  1.8294404764788D+00 -7.2823888703753D-02
28  2.7000000000000D-01  1.8253865720713D+00 -1.2781910132390D-02
29  2.8000000000000D-01  1.8157116720525D+00  4.9799474343019D-02
30  2.9000000000000D-01  1.8005836144590D+00  1.1452852893216D-01
31  3.0000000000000D-01  1.7801845638001D+00  1.8102345272010D-01
32  3.1000000000000D-01  1.7547092200005D+00  2.4891670357481D-01
33  3.2000000000000D-01  1.7243631731553D+00  3.1785862728318D-01
34  3.3000000000000D-01  1.6893614248580D+00  3.8752033443305D-01
35  3.4000000000000D-01  1.6499270913247D+00  4.5759578607651D-01
36  3.5000000000000D-01  1.6062902977290D+00  5.2780306851437D-01
37  3.6000000000000D-01  1.5586872672388D+00  5.9788485720587D-01
38  3.7000000000000D-01  1.5073596023253D+00  6.6760808939795D-01
39  3.8000000000000D-01  1.4525537501513D+00  7.3676288414839D-01
40  3.9000000000000D-01  1.3945206383539D+00  8.0516076656274D-01
41  4.0000000000000D-01  1.3335154624695D+00  8.7263226986647D-01
42  4.1000000000000D-01  1.2697976016959D+00  9.3902400401459D-01
43  4.2000000000000D-01  1.2036306357881D+00  1.0041952925543D+00
44  4.3000000000000D-01  1.1352824327001D+00  1.0680144901022D+00
45  4.4000000000000D-01  1.0650252742272D+00  1.1303551008268D+00
46  4.5000000000000D-01  9.9313598540400D-01  1.1910918235406D+00
47  4.6000000000000D-01  9.1989603282906D-01  1.2500966512758D+00
48  4.7000000000000D-01  8.4559155743742D-01  1.3072351524662D+00
49  4.8000000000000D-01  7.7051330851830D-01  1.3623630570864D+00
50  4.9000000000000D-01  6.9495644796736D-01  1.4153232643604D+00
51  5.0000000000000D-01  6.1922019681849D-01  1.4659433790896D+00
52  5.1000000000000D-01  5.4360729996540D-01  1.5140338714310D+00
53  5.2000000000000D-01  4.6842328957186D-01  1.5593869403521D+00
54  5.3000000000000D-01  3.9397553288525D-01  1.6017761442933D+00
55  5.4000000000000D-01  3.2057205589448D-01  1.6409568441486D+00
56  5.5000000000000D-01  2.4852014039539D-01  1.6766674838859D+00
57  5.6000000000000D-01  1.7812469838083D-01  1.7086317134893D+00
58  5.7000000000000D-01  1.0968643415489D-01  1.7365613377326D+00
59  5.8000000000000D-01  4.3499810984992D-02  1.7601600532211D+00
60  5.9000000000000D-01 -2.0149154651818D-02  1.7791279154715D+00
61  6.0000000000000D-01 -8.0985242292783D-02  1.7931664581691D+00
62  6.1000000000000D-01 -1.3874648582926D-01  1.8019843684392D+00
63  6.2000000000000D-01 -1.9318670183876D-01  1.8053036056032D+00
64  6.3000000000000D-01 -2.4407804472230D-01  1.8028658366464D+00
65  6.4000000000000D-01 -2.9121354228193D-01  1.7944390500733D+00
66  6.5000000000000D-01 -3.3440956311020D-01  1.7798242010728D+00
67  6.6000000000000D-01 -3.7350816593036D-01  1.7588617353310D+00
68  6.7000000000000D-01 -4.0837928085221D-01  1.7314378365309D+00
69  6.8000000000000D-01 -4.3892267343029D-01  1.6974902436724D+00
70  6.9000000000000D-01 -4.6506964443760D-01  1.6570134888987D+00
71  7.0000000000000D-01 -4.8678442138383D-01  1.6100634144795D+00
72  7.1000000000000D-01 -5.0406520193717D-01  1.5567608387782D+00
73  7.2000000000000D-01 -5.1694481456490D-01  1.4972942554375D+00
74  7.3000000000000D-01 -5.2549096771589D-01  1.4319214671717D+00
75  7.4000000000000D-01 -5.2980606567929D-01  1.3609700752846D+00
76  7.5000000000000D-01 -5.3002657672892D-01  1.2848367679363D+00
77  7.6000000000000D-01 -5.2632194714361D-01  1.2039853737744D+00
78  7.7000000000000D-01 -5.1889306304504D-01  1.1189436724220D+00
79  7.8000000000000D-01 -5.0797027056658D-01  1.0302989790086D+00
80  7.9000000000000D-01 -4.9381097342898D-01  9.3869254575515D-01
81  8.0000000000000D-01 -4.7669683544313D-01  8.4481284922412D-01
82  8.1000000000000D-01 -4.5693062357227D-01  7.4938785658433D-01
83  8.2000000000000D-01 -4.3483273480715D-01  6.5317638760898D-01
84  8.3000000000000D-01 -4.1073745707290D-01  5.5695871062652D-01
85  8.4000000000000D-01 -3.8498902054308D-01  4.6152652979613D-01
86  8.5000000000000D-01 -3.5793750094739D-01  3.6767253745581D-01
87  8.6000000000000D-01 -3.2993464060260D-01  2.7617971851114D-01
88  8.7000000000000D-01 -3.0132965587295D-01  1.8781060357938D-01
89  8.8000000000000D-01 -2.7246510182339D-01  1.0329667488337D-01
90  8.9000000000000D-01 -2.4367286486659D-01  2.3328129206222D-02
91  9.0000000000000D-01 -2.1527033514909D-01 -5.1455867158387D-02
92  9.1000000000000D-01 -1.8755693437853D-01 -1.2047582434812D-01
93  9.2000000000000D-01 -1.6081028313086D-01 -1.8322227659165D-01
94  9.3000000000000D-01 -1.3528184901793D-01 -2.3926828097241D-01
95  9.4000000000000D-01 -1.1119343028087D-01 -2.8827880354507D-01
96  9.5000000000000D-01 -8.8734923137130D-02 -3.3001554282556D-01
97  9.6000000000000D-01 -6.8062534351635D-02 -3.6434056897177D-01
98  9.7000000000000D-01 -4.9297561714474D-02 -3.9121831669904D-01
99  9.8000000000000D-01 -3.2525745323886D-02 -4.1071594243637D-01
100  9.9000000000000D-01 -1.7797199218765D-02 -4.2300201718850D-01
101  1.0000000000000D+00 -5.1269234439084D-03 -4.2834355468451D-01
102  1.0100000000000D+00  5.5041139218982D-03 -4.2710140606950D-01
103  1.0200000000000D+00  1.4147345276600D-02 -4.1972408232649D-01
104  1.0300000000000D+00  2.0884452842927D-02 -4.0674009490589D-01
105  1.0400000000000D+00  2.5824738479210D-02 -3.8874893297925D-01
106  1.0500000000000D+00  2.9102061852476D-02 -3.6641082055569D-01
107  1.0600000000000D+00  3.0871403285935D-02 -3.4043542198344D-01
108  1.0700000000000D+00  3.1305113883684D-02 -3.1156968329741D-01
109  1.0800000000000D+00  3.0588921465795D-02 -2.8058501475179D-01
110  1.0900000000000D+00  2.8917765230882D-02 -2.4826403312593D-01
111  1.1000000000000D+00  2.6491535137890D-02 -2.1538709170028D-01
112  1.1100000000000D+00  2.3510794053441D-02 -1.8271883206698D-01
113  1.1200000000000D+00  2.0172560783220D-02 -1.5099499221704D-01
114  1.1300000000000D+00  1.6666230709226D-02 -1.2090970121238D-01
115  1.1400000000000D+00  1.3169709028248D-02 -9.3103485600592D-02
116  1.1500000000000D+00  9.8458269958529D-03 -6.8152198966383D-02
117  1.1600000000000D+00  6.8391066882356D-03 -4.6557071307805D-02
118  1.1700000000000D+00  4.2743269310559D-03 -2.8745433516518D-02
119  1.1800000000000D+00  2.2431552744256D-03 -1.4989277654109D-02
120  1.1900000000000D+00  8.3233285799415D-04 -5.6028335672534D-03
121  1.2000000000000D+00  1.1930571213744D-04 -9.2194559205923D-04
122  1.2100000000000D+00 -5.7631303613878D-05  2.7990719803686D-04
123  1.2200000000000D+00 -2.8955816292242D-06  1.5828610748604D-05
124  1.2300000000000D+00  1.1778569403893D-05 -6.6114180460693D-05
125  1.2400000000000D+00 -2.5236716640916D-06  1.3712105585391D-05
126  1.2500000000000D+00  2.5897657848099D-09 -6.7994778368064D-09
127  1.2600000000000D+00  7.6610134205666D-08 -2.0114132044741D-07
128  1.2700000000000D+00  0.0000000000000D+00  0.0000000000000D+00
129  1.2800000000000D+00  0.0000000000000D+00  0.0000000000000D+00
130  1.2900000000000D+00  0.0000000000000D+00  0.0000000000000D+00
131  1.3000000000000D+00  0.0000000000000D+00  0.0000000000000D+00
132  1.3100000000000D+00  0.0000000000000D+00  0.0000000000000D+00
133  1.3200000000000D+00  0.0000000000000D+00  0.0000000000000D+00
134  1.3300000000000D+00  0.0000000000000D+00  0.0000000000000D+00
135  1.3400000000000D+00  0.0000000000000D+00  0.0000000000000D+00
136  1.3500000000000D+00  0.0000000000000D+00  0.0000000000000D+00
137  1.3600000000000D+00  0.0000000000000D+00  0.0000000000000D+00
138  1.3700000000000D+00  0.0000000000000D+00  0.0000000000000D+00
139  1.3800000000000D+00  0.0000000000000D+00  0.0000000000000D+00
140  1.3900000000000D+00  0.0000000000000D+00  0.0000000000000D+00
141  1.4000000000000D+00  0.0000000000000D+00  0.0000000000000D+00
142  1.4100000000000D+00  0.0000000000000D+00  0.0000000000000D+00
143  1.4200000000000D+00  0.0000000000000D+00  0.0000000000000D+00
144  1.4300000000000D+00  0.0000000000000D+00  0.0000000000000D+00
145  1.4400000000000D+00  0.0000000000000D+00  0.0000000000000D+00
146  1.4500000000000D+00  0.0000000000000D+00  0.0000000000000D+00
147  1.4600000000000D+00  0.0000000000000D+00  0.0000000000000D+00
148  1.4700000000000D+00  0.0000000000000D+00  0.0000000000000D+00
149  1.4800000000000D+00  0.0000000000000D+00  0.0000000000000D+00
150  1.4900000000000D+00  0.0000000000000D+00  0.0000000000000D+00
151  1.5000000000000D+00  0.0000000000000D+00  0.0000000000000D+00
152  1.5100000000000D+00  0.0000000000000D+00  0.0000000000000D+00
153  1.5200000000000D+00  0.0000000000000D+00  0.0000000000000D+00
154  1.5300000000000D+00  0.0000000000000D+00  0.0000000000000D+00
155  1.5400000000000D+00  0.0000000000000D+00  0.0000000000000D+00
156  1.5500000000000D+00  0.0000000000000D+00  0.0000000000000D+00
157  1.5600000000000D+00  0.0000000000000D+00  0.0000000000000D+00
158  1.5700000000000D+00  0.0000000000000D+00  0.0000000000000D+00
159  1.5800000000000D+00  0.0000000000000D+00  0.0000000000000D+00
160  1.5900000000000D+00  0.0000000000000D+00  0.0000000000000D+00
161  1.6000000000000D+00  0.0000000000000D+00  0.0000000000000D+00
162  1.6100000000000D+00  0.0000000000000D+00  0.0000000000000D+00
163  1.6200000000000D+00  0.0000000000000D+00  0.0000000000000D+00
164  1.6300000000000D+00  0.0000000000000D+00  0.0000000000000D+00
165  1.6400000000000D+00  0.0000000000000D+00  0.0000000000000D+00
166  1.6500000000000D+00  0.0000000000000D+00  0.0000000000000D+00
167  1.6600000000000D+00  0.0000000000000D+00  0.0000000000000D+00
168  1.6700000000000D+00  0.0000000000000D+00  0.0000000000000D+00
169  1.6800000000000D+00  0.0000000000000D+00  0.0000000000000D+00
170  1.6900000000000D+00  0.0000000000000D+00  0.0000000000000D+00
171  1.7000000000000D+00  0.0000000000000D+00  0.0000000000000D+00
172  1.7100000000000D+00  0.0000000000000D+00  0.0000000000000D+00
173  1.7200000000000D+00  0.0000000000000D+00  0.0000000000000D+00
174  1.7300000000000D+00  0.0000000000000D+00  0.0000000000000D+00
175  1.7400000000000D+00  0.0000000000000D+00  0.0000000000000D+00
176  1.7500000000000D+00  0.0000000000000D+00  0.0000000000000D+00
177  1.7600000000000D+00  0.0000000000000D+00  0.0000000000000D+00
178  1.7700000000000D+00  0.0000000000000D+00  0.0000000000000D+00
179  1.7800000000000D+00  0.0000000000000D+00  0.0000000000000D+00
180  1.7900000000000D+00  0.0000000000000D+00  0.0000000000000D+00
181  1.8000000000000D+00  0.0000000000000D+00  0.0000000000000D+00
182  1.8100000000000D+00  0.0000000000000D+00  0.0000000000000D+00
183  1.8200000000000D+00  0.0000000000000D+00  0.0000000000000D+00
184  1.8300000000000D+00  0.0000000000000D+00  0.0000000000000D+00
185  1.8400000000000D+00  0.0000000000000D+00  0.0000000000000D+00
186  1.8500000000000D+00  0.0000000000000D+00  0.0000000000000D+00
187  1.8600000000000D+00  0.0000000000000D+00  0.0000000000000D+00
188  1.8700000000000D+00  0.0000000000000D+00  0.0000000000000D+00
189  1.8800000000000D+00  0.0000000000000D+00  0.0000000000000D+00
190  1.8900000000000D+00  0.0000000000000D+00  0.0000000000000D+00
191  1.9000000000000D+00  0.0000000000000D+00  0.0000000000000D+00
192  1.9100000000000D+00  0.0000000000000D+00  0.0000000000000D+00
193  1.9200000000000D+00  0.0000000000000D+00  0.0000000000000D+00
194  1.9300000000000D+00  0.0000000000000D+00  0.0000000000000D+00
195  1.9400000000000D+00  0.0000000000000D+00  0.0000000000000D+00
196  1.9500000000000D+00  0.0000000000000D+00  0.0000000000000D+00
197  1.9600000000000D+00  0.0000000000000D+00  0.0000000000000D+00
198  1.9700000000000D+00  0.0000000000000D+00  0.0000000000000D+00
199  1.9800000000000D+00  0.0000000000000D+00  0.0000000000000D+00
200  1.9900000000000D+00  0.0000000000000D+00  0.0000000000000D+00
201  2.0000000000000D+00  0.0000000000000D+00  0.0000000000000D+00
202  2.0100000000000D+00  0.0000000000000D+00  0.0000000000000D+00
203  2.0200000000000D+00  0.0000000000000D+00  0.0000000000000D+00
204  2.0300000000000D+00  0.0000000000000D+00  0.0000000000000D+00
205  2.0400000000000D+00  0.0000000000000D+00  0.0000000000000D+00
206  2.0500000000000D+00  0.0000000000000D+00  0.0000000000000D+00
207  2.0600000000000D+00  0.0000000000000D+00  0.0000000000000D+00
208  2.0700000000000D+00  0.0000000000000D+00  0.0000000000000D+00
209  2.0800000000000D+00  0.0000000000000D+00  0.0000000000000D+00
210  2.0900000000000D+00  0.0000000000000D+00  0.0000000000000D+00
211  2.1000000000000D+00  0.0000000000000D+00  0.0000000000000D+00
212  2.1100000000000D+00  0.0000000000000D+00  0.0000000000000D+00
213  2.1200000000000D+00  0.0000000000000D+00  0.0000000000000D+00
214  2.1300000000000D+00  0.0000000000000D+00  0.0000000000000D+00
215  2.1400000000000D+00  0.0000000000000D+00  0.0000000000000D+00
216  2.1500000000000D+00  0.0000000000000D+00  0.0000000000000D+00
217  2.1600000000000D+00  0.0000000000000D+00  0.0000000000000D+00
218  2.1700000000000D+00  0.0000000000000D+00  0.0000000000000D+00
219  2.1800000000000D+00  0.0000000000000D+00  0.0000000000000D+00
220  2.1900000000000D+00  0.0000000000000D+00  0.0000000000000D+00
221  2.2000000000000D+00  0.0000000000000D+00  0.0000000000000D+00
222  2.2100000000000D+00  0.0000000000000D+00  0.0000000000000D+00
223  2.2200000000000D+00  0.0000000000000D+00  0.0000000000000D+00
224  2.2300000000000D+00  0.0000000000000D+00  0.0000000000000D+00
225  2.2400000000000D+00  0.0000000000000D+00  0.0000000000000D+00
226  2.2500000000000D+00  0.0000000000000D+00  0.0000000000000D+00
227  2.2600000000000D+00  0.0000000000000D+00  0.0000000000000D+00
228  2.2700000000000D+00  0.0000000000000D+00  0.0000000000000D+00
229  2.2800000000000D+00  0.0000000000000D+00  0.0000000000000D+00
230  2.2900000000000D+00  0.0000000000000D+00  0.0000000000000D+00
231  2.3000000000000D+00  0.0000000000000D+00  0.0000000000000D+00
232  2.3100000000000D+00  0.0000000000000D+00  0.0000000000000D+00
233  2.3200000000000D+00  0.0000000000000D+00  0.0000000000000D+00
234  2.3300000000000D+00  0.0000000000000D+00  0.0000000000000D+00
235  2.3400000000000D+00  0.0000000000000D+00  0.0000000000000D+00
236  2.3500000000000D+00  0.0000000000000D+00  0.0000000000000D+00
237  2.3600000000000D+00  0.0000000000000D+00  0.0000000000000D+00
238  2.3700000000000D+00  0.0000000000000D+00  0.0000000000000D+00
239  2.3800000000000D+00  0.0000000000000D+00  0.0000000000000D+00
240  2.3900000000000D+00  0.0000000000000D+00  0.0000000000000D+00
241  2.4000000000000D+00  0.0000000000000D+00  0.0000000000000D+00
242  2.4100000000000D+00  0.0000000000000D+00  0.0000000000000D+00
243  2.4200000000000D+00  0.0000000000000D+00  0.0000000000000D+00
244  2.4300000000000D+00  0.0000000000000D+00  0.0000000000000D+00
245  2.4400000000000D+00  0.0000000000000D+00  0.0000000000000D+00
246  2.4500000000000D+00  0.0000000000000D+00  0.0000000000000D+00
247  2.4600000000000D+00  0.0000000000000D+00  0.0000000000000D+00
248  2.4700000000000D+00  0.0000000000000D+00  0.0000000000000D+00
249  2.4800000000000D+00  0.0000000000000D+00  0.0000000000000D+00
250  2.4900000000000D+00  0.0000000000000D+00  0.0000000000000D+00
251  2.5000000000000D+00  0.0000000000000D+00  0.0000000000000D+00
252  2.5100000000000D+00  0.0000000000000D+00  0.0000000000000D+00
253  2.5200000000000D+00  0.0000000000000D+00  0.0000000000000D+00
254  2.5300000000000D+00  0.0000000000000D+00  0.0000000000000D+00
255  2.5400000000000D+00  0.0000000000000D+00  0.0000000000000D+00
256  2.5500000000000D+00  0.0000000000000D+00  0.0000000000000D+00
257  2.5600000000000D+00  0.0000000000000D+00  0.0000000000000D+00
258  2.5700000000000D+00  0.0000000000000D+00  0.0000000000000D+00
259  2.5800000000000D+00  0.0000000000000D+00  0.0000000000000D+00
260  2.5900000000000D+00  0.0000000000000D+00  0.0000000000000D+00
261  2.6000000000000D+00  0.0000000000000D+00  0.0000000000000D+00
262  2.6100000000000D+00  0.0000000000000D+00  0.0000000000000D+00
263  2.6200000000000D+00  0.0000000000000D+00  0.0000000000000D+00
264  2.6300000000000D+00  0.0000000000000D+00  0.0000000000000D+00
265  2.6400000000000D+00  0.0000000000000D+00  0.0000000000000D+00
266  2.6500000000000D+00  0.0000000000000D+00  0.0000000000000D+00
267  2.6600000000000D+00  0.0000000000000D+00  0.0000000000000D+00
268  2.6700000000000D+00  0.0000000000000D+00  0.0000000000000D+00
269  2.6800000000000D+00  0.0000000000000D+00  0.0000000000000D+00
270  2.6900000000000D+00  0.0000000000000D+00  0.0000000000000D+00
271  2.7000000000000D+00  0.0000000000000D+00  0.0000000000000D+00
272  2.7100000000000D+00  0.0000000000000D+00  0.0000000000000D+00
273  2.7200000000000D+00  0.0000000000000D+00  0.0000000000000D+00
274  2.7300000000000D+00  0.0000000000000D+00  0.0000000000000D+00
275  2.7400000000000D+00  0.0000000000000D+00  0.0000000000000D+00
276  2.7500000000000D+00  0.0000000000000D+00  0.0000000000000D+00
277  2.7600000000000D+00  0.0000000000000D+00  0.0000000000000D+00
278  2.7700000000000D+00  0.0000000000000D+00  0.0000000000000D+00
279  2.7800000000000D+00  0.0000000000000D+00  0.0000000000000D+00
280  2.7900000000000D+00  0.0000000000000D+00  0.0000000000000D+00
281  2.8000000000000D+00  0.0000000000000D+00  0.0000000000000D+00
282  2.8100000000000D+00  0.0000000000000D+00  0.0000000000000D+00
283  2.8200000000000D+00  0.0000000000000D+00  0.0000000000000D+00
284  2.8300000000000D+00  0.0000000000000D+00  0.0000000000000D+00
285  2.8400000000000D+00  0.0000000000000D+00  0.0000000000000D+00
286  2.8500000000000D+00  0.0000000000000D+00  0.0000000000000D+00
287  2.8600000000000D+00  0.0000000000000D+00  0.0000000000000D+00
288  2.8700000000000D+00  0.0000000000000D+00  0.0000000000000D+00
289  2.8800000000000D+00  0.0000000000000D+00  0.0000000000000D+00
290  2.8900000000000D+00  0.0000000000000D+00  0.0000000000000D+00
291  2.9000000000000D+00  0.0000000000000D+00  0.0000000000000D+00
292  2.9100000000000D+00  0.0000000000000D+00  0.0000000000000D+00
293  2.9200000000000D+00  0.0000000000000D+00  0.0000000000000D+00
294  2.9300000000000D+00  0.0000000000000D+00  0.0000000000000D+00
295  2.9400000000000D+00  0.0000000000000D+00  0.0000000000000D+00
296  2.9500000000000D+00  0.0000000000000D+00  0.0000000000000D+00
297  2.9600000000000D+00  0.0000000000000D+00  0.0000000000000D+00
298  2.9700000000000D+00  0.0000000000000D+00  0.0000000000000D+00
299  2.9800000000000D+00  0.0000000000000D+00  0.0000000000000D+00
300  2.9900000000000D+00  0.0000000000000D+00  0.0000000000000D+00
301  3.0000000000000D+00  0.0000000000000D+00  0.0000000000000D+00
302  3.0100000000000D+00  0.0000000000000D+00  0.0000000000000D+00
303  3.0200000000000D+00  0.0000000000000D+00  0.0000000000000D+00
304  3.0300000000000D+00  0.0000000000000D+00  0.0000000000000D+00
305  3.0400000000000D+00  0.0000000000000D+00  0.0000000000000D+00
306  3.0500000000000D+00  0.0000000000000D+00  0.0000000000000D+00
307  3.0600000000000D+00  0.0000000000000D+00  0.0000000000000D+00
308  3.0700000000000D+00  0.0000000000000D+00  0.0000000000000D+00
309  3.0800000000000D+00  0.0000000000000D+00  0.0000000000000D+00
310  3.0900000000000D+00  0.0000000000000D+00  0.0000000000000D+00
311  3.1000000000000D+00  0.0000000000000D+00  0.0000000000000D+00
312  3.1100000000000D+00  0.0000000000000D+00  0.0000000000000D+00
313  3.1200000000000D+00  0.0000000000000D+00  0.0000000000000D+00
314  3.1300000000000D+00  0.0000000000000D+00  0.0000000000000D+00
315  3.1400000000000D+00  0.0000000000000D+00  0.0000000000000D+00
316  3.1500000000000D+00  0.0000000000000D+00  0.0000000000000D+00
317  3.1600000000000D+00  0.0000000000000D+00  0.0000000000000D+00
318  3.1700000000000D+00  0.0000000000000D+00  0.0000000000000D+00
319  3.1800000000000D+00  0.0000000000000D+00  0.0000000000000D+00
320  3.1900000000000D+00  0.0000000000000D+00  0.0000000000000D+00
321  3.2000000000000D+00  0.0000000000000D+00  0.0000000000000D+00
322  3.2100000000000D+00  0.0000000000000D+00  0.0000000000000D+00
323  3.2200000000000D+00  0.0000000000000D+00  0.0000000000000D+00
324  3.2300000000000D+00  0.0000000000000D+00  0.0000000000000D+00
325  3.2400000000000D+00  0.0000000000000D+00  0.0000000000000D+00
326  3.2500000000000D+00  0.0000000000000D+00  0.0000000000000D+00
327  3.2600000000000D+00  0.0000000000000D+00  0.0000000000000D+00
328  3.2700000000000D+00  0.0000000000000D+00  0.0000000000000D+00
329  3.2800000000000D+00  0.0000000000000D+00  0.0000000000000D+00
330  3.2900000000000D+00  0.0000000000000D+00  0.0000000000000D+00
331  3.3000000000000D+00  0.0000000000000D+00  0.0000000000000D+00
332  3.3100000000000D+00  0.0000000000000D+00  0.0000000000000D+00
333  3.3200000000000D+00  0.0000000000000D+00  0.0000000000000D+00
334  3.3300000000000D+00  0.0000000000000D+00  0.0000000000000D+00
335  3.3400000000000D+00  0.0000000000000D+00  0.0000000000000D+00
336  3.3500000000000D+00  0.0000000000000D+00  0.0000000000000D+00
337  3.3600000000000D+00  0.0000000000000D+00  0.0000000000000D+00
338  3.3700000000000D+00  0.0000000000000D+00  0.0000000000000D+00
339  3.3800000000000D+00  0.0000000000000D+00  0.0000000000000D+00
340  3.3900000000000D+00  0.0000000000000D+00  0.0000000000000D+00
341  3.4000000000000D+00  0.0000000000000D+00  0.0000000000000D+00
342  3.4100000000000D+00  0.0000000000000D+00  0.0000000000000D+00
343  3.4200000000000D+00  0.0000000000000D+00  0.0000000000000D+00
344  3.4300000000000D+00  0.0000000000000D+00  0.0000000000000D+00
345  3.4400000000000D+00  0.0000000000000D+00  0.0000000000000D+00
346  3.4500000000000D+00  0.0000000000000D+00  0.0000000000000D+00
347  3.4600000000000D+00  0.0000000000000D+00  0.0000000000000D+00
348  3.4700000000000D+00  0.0000000000000D+00  0.0000000000000D+00
349  3.4800000000000D+00  0.0000000000000D+00  0.0000000000000D+00
350  3.4900000000000D+00  0.0000000000000D+00  0.0000000000000D+00
351  3.5000000000000D+00  0.0000000000000D+00  0.0000000000000D+00
352  3.5100000000000D+00  0.0000000000000D+00  0.0000000000000D+00
353  3.5200000000000D+00  0.0000000000000D+00  0.0000000000000D+00
354  3.5300000000000D+00  0.0000000000000D+00  0.0000000000000D+00
355  3.5400000000000D+00  0.0000000000000D+00  0.0000000000000D+00
356  3.5500000000000D+00  0.0000000000000D+00  0.0000000000000D+00
357  3.5600000000000D+00  0.0000000000000D+00  0.0000000000000D+00
358  3.5700000000000D+00  0.0000000000000D+00  0.0000000000000D+00
359  3.5800000000000D+00  0.0000000000000D+00  0.0000000000000D+00
360  3.5900000000000D+00  0.0000000000000D+00  0.0000000000000D+00
361  3.6000000000000D+00  0.0000000000000D+00  0.0000000000000D+00
362  3.6100000000000D+00  0.0000000000000D+00  0.0000000000000D+00
363  3.6200000000000D+00  0.0000000000000D+00  0.0000000000000D+00
364  3.6300000000000D+00  0.0000000000000D+00  0.0000000000000D+00
365  3.6400000000000D+00  0.0000000000000D+00  0.0000000000000D+00
366  3.6500000000000D+00  0.0000000000000D+00  0.0000000000000D+00
367  3.6600000000000D+00  0.0000000000000D+00  0.0000000000000D+00
368  3.6700000000000D+00  0.0000000000000D+00  0.0000000000000D+00
369  3.6800000000000D+00  0.0000000000000D+00  0.0000000000000D+00
370  3.6900000000000D+00  0.0000000000000D+00  0.0000000000000D+00
371  3.7000000000000D+00  0.0000000000000D+00  0.0000000000000D+00
372  3.7100000000000D+00  0.0000000000000D+00  0.0000000000000D+00
373  3.7200000000000D+00  0.0000000000000D+00  0.0000000000000D+00
374  3.7300000000000D+00  0.0000000000000D+00  0.0000000000000D+00
375  3.7400000000000D+00  0.0000000000000D+00  0.0000000000000D+00
376  3.7500000000000D+00  0.0000000000000D+00  0.0000000000000D+00
377  3.7600000000000D+00  0.0000000000000D+00  0.0000000000000D+00
378  3.7700000000000D+00  0.0000000000000D+00  0.0000000000000D+00
379  3.7800000000000D+00  0.0000000000000D+00  0.0000000000000D+00
380  3.7900000000000D+00  0.0000000000000D+00  0.0000000000000D+00
381  3.8000000000000D+00  0.0000000000000D+00  0.0000000000000D+00
382  3.8100000000000D+00  0.0000000000000D+00  0.0000000000000D+00
383  3.8200000000000D+00  0.0000000000000D+00  0.0000000000000D+00
384  3.8300000000000D+00  0.0000000000000D+00  0.0000000000000D+00
385  3.8400000000000D+00  0.0000000000000D+00  0.0000000000000D+00
386  3.8500000000000D+00  0.0000000000000D+00  0.0000000000000D+00
387  3.8600000000000D+00  0.0000000000000D+00  0.0000000000000D+00
388  3.8700000000000D+00  0.0000000000000D+00  0.0000000000000D+00
389  3.8800000000000D+00  0.0000000000000D+00  0.0000000000000D+00
390  3.8900000000000D+00  0.0000000000000D+00  0.0000000000000D+00
391  3.9000000000000D+00  0.0000000000000D+00  0.0000000000000D+00
392  3.9100000000000D+00  0.0000000000000D+00  0.0000000000000D+00
393  3.9200000000000D+00  0.0000000000000D+00  0.0000000000000D+00
394  3.9300000000000D+00  0.0000000000000D+00  0.0000000000000D+00
395  3.9400000000000D+00  0.0000000000000D+00  0.0000000000000D+00
396  3.9500000000000D+00  0.0000000000000D+00  0.0000000000000D+00
397  3.9600000000000D+00  0.0000000000000D+00  0.0000000000000D+00
398  3.9700000000000D+00  0.0000000000000D+00  0.0000000000000D+00
399  3.9800000000000D+00  0.0000000000000D+00  0.0000000000000D+00
400  3.9900000000000D+00  0.0000000000000D+00  0.0000000000000D+00
1                        -2.2128254721558D+00 -5.5628625302909D-01
1  0.0000000000000D+00  3.0568886166815D-07 -5.5000226156787D-07
2  1.0000000000000D-02  6.2896169653787D-03 -5.9695331488163D-03
3  2.0000000000000D-02  2.4990868939521D-02 -2.3610186669400D-02
4  3.0000000000000D-02  5.5606794730535D-02 -5.2128408516517D-02
5  4.0000000000000D-02  9.7328367743629D-02 -9.0235518329416D-02
6  5.0000000000000D-02  1.4906263201647D-01 -1.3619725276348D-01
7  6.0000000000000D-02  2.0947066511747D-01 -1.8790054910998D-01
8  7.0000000000000D-02  2.7701400136434D-01 -2.4293509909094D-01
9  8.0000000000000D-02  3.5000784313147D-01 -2.9868665471397D-01
10  9.0000000000000D-02  4.2667914178089D-01 -3.5243862685071D-01
11  1.0000000000000D-01  5.0522745178696D-01 -4.0147820080931D-01
12  1.1000000000000D-01  5.8388635835667D-01 -4.4320301324188D-01
13  1.2000000000000D-01  6.6098325408146D-01 -4.7522439805625D-01
14  1.3000000000000D-01  7.3499529492914D-01 -4.9546331728485D-01
15  1.4000000000000D-01  8.0459949844992D-01 -5.0223534265764D-01
16  1.5000000000000D-01  8.6871515292223D-01 -4.9432143642379D-01
17  1.6000000000000D-01  9.2653697821996D-01 -4.7102178251623D-01
18  1.7000000000000D-01  9.7755780800219D-01 -4.3219052389247D-01
19  1.8000000000000D-01  1.0215799369505D+00 -3.7824994756099D-01
20  1.9000000000000D-01  1.0587146831258D+00 -3.1018340121479D-01
21  2.0000000000000D-01  1.0893701398141D+00 -2.2950699821182D-01
22  2.1000000000000D-01  1.1142275185524D+00 -1.3822094337940D-01
23  2.2000000000000D-01  1.1342069002638D+00 -3.8742063033415D-02
24  2.3000000000000D-01  1.1504235998574D+00  6.6180178274379D-02
25  2.4000000000000D-01  1.1641366974112D+00  1.7356126970378D-01
26  2.5000000000000D-01  1.1766915836918D+00  2.8028942784759D-01
27  2.6000000000000D-01  1.1894585985740D+00  3.8323972194352D-01
28  2.7000000000000D-01  1.2037699994619D+00  4.7939045103958D-01
29  2.8000000000000D-01  1.2208575770563D+00  5.6593754893972D-01
30  2.9000000000000D-01  1.2417932345012D+00  6.4040281816373D-01
31  3.0000000000000D-01  1.2674347626224D+00  7.0073196979266D-01
32  3.1000000000000D-01  1.2983788810496D+00  7.4537876681690D-01
33  3.2000000000000D-01  1.3349233777116D+00  7.7337202419212D-01
34  3.3000000000000D-01  1.3770398753102D+00  7.8436279417359D-01
35  3.4000000000000D-01  1.4243583931242D+00  7.7864974123701D-01
36  3.5000000000000D-01  1.4761644680441D+00  7.5718146398604D-01
37  3.6000000000000D-01  1.5314091639010D+00  7.2153532597362D-01
38  3.7000000000000D-01  1.5887318478785D+00  6.7387318541261D-01
39  3.8000000000000D-01  1.6464951625973D+00  6.1687523646207D-01
40  3.9000000000000D-01  1.7028311880039D+00  5.5365396319259D-01
41  4.0000000000000D-01  1.7556973836533D+00  4.8765093350518D-01
42  4.1000000000000D-01  1.8029405434999D+00  4.2251979834734D-01
43  4.2000000000000D-01  1.8423666946685D+00  3.6199938836596D-01