Mo    ONCVPSP-3.3.0  r_core=   1.45541   1.45541   1.35488
42.0000     14.0000      180430    zatom,zion,pspd
8 -116133   2     4   600     0    pspcod,pspxc,lmax,lloc,mmax,r2well
5.99000000  3.00000000  0.00000000    rchrg fchrg qchrg
2     3     3     0    nproj
3     1           extension_switch
4     3     0    nprojso
0                         1.3470805663794D+00  1.3814939222706D+01
1  0.0000000000000D+00 -4.8156420517920D-10  1.8187717998330D-10
2  1.0000000000000D-02 -1.8002262974787D-02  5.5843122127064D-02
3  2.0000000000000D-02 -3.6029133622887D-02  1.1164561653831D-01
4  3.0000000000000D-02 -5.4104059265930D-02  1.6736645538436D-01
5  4.0000000000000D-02 -7.2248179919652D-02  2.2296381564346D-01
6  5.0000000000000D-02 -9.0479208011816D-02  2.7839469422612D-01
7  6.0000000000000D-02 -1.0881034780227D-01  3.3361453817890D-01
8  7.0000000000000D-02 -1.2724926717055D-01  3.8857689480592D-01
9  8.0000000000000D-02 -1.4579713395476D-01  4.4323308634447D-01
10  9.0000000000000D-02 -1.6444772843071D-01  4.9753191360641D-01
11  1.0000000000000D-01 -1.8318664281666D-01  5.5141939273174D-01
12  1.1000000000000D-01 -2.0199057788276D-01  6.0483852889603D-01
13  1.2000000000000D-01 -2.2082674584137D-01  6.5772913047290D-01
14  1.3000000000000D-01 -2.3965238770214D-01  7.1002766677809D-01
15  1.4000000000000D-01 -2.5841441220251D-01  7.6166717211712D-01
16  1.5000000000000D-01 -2.7704916227779D-01  8.1257719842575D-01
17  1.6000000000000D-01 -2.9548231382628D-01  8.6268381833703D-01
18  1.7000000000000D-01 -3.1362891026190D-01  9.1190968003243D-01
19  1.8000000000000D-01 -3.3139353504159D-01  9.6017411474254D-01
20  1.9000000000000D-01 -3.4867062301778D-01  1.0073932972590D+00
21  2.0000000000000D-01 -3.6534491010807D-01  1.0534804593077D+00
22  2.1000000000000D-01 -3.8129201940803D-01  1.0983461551178D+00
23  2.2000000000000D-01 -3.9637918050856D-01  1.1418985780077D+00
24  2.3000000000000D-01 -4.1046607743097D-01  1.1840439263002D+00
25  2.4000000000000D-01 -4.2340581926986D-01  1.2246868163807D+00
26  2.5000000000000D-01 -4.3504602635077D-01  1.2637307402266D+00
27  2.6000000000000D-01 -4.4523002347616D-01  1.3010785642730D+00
28  2.7000000000000D-01 -4.5379813066194D-01  1.3366330660339D+00
29  2.8000000000000D-01 -4.6058904066867D-01  1.3702975044841D+00
30  2.9000000000000D-01 -4.6544127161690D-01  1.4019762198202D+00
31  3.0000000000000D-01 -4.6819468205551D-01  1.4315752578706D+00
32  3.1000000000000D-01 -4.6869203503495D-01  1.4590030141091D+00
33  3.2000000000000D-01 -4.6678059703179D-01  1.4841708919558D+00
34  3.3000000000000D-01 -4.6231375698651D-01  1.5069939698232D+00
35  3.4000000000000D-01 -4.5515265025800D-01  1.5273916711803D+00
36  3.5000000000000D-01 -4.4516777197419D-01  1.5452884317780D+00
37  3.6000000000000D-01 -4.3224056407095D-01  1.5606143580950D+00
38  3.7000000000000D-01 -4.1626496026720D-01  1.5733058710337D+00
39  3.8000000000000D-01 -3.9714887332372D-01  1.5833063289153D+00
40  3.9000000000000D-01 -3.7481560917883D-01  1.5905666239020D+00
41  4.0000000000000D-01 -3.4920519294662D-01  1.5950457460980D+00
42  4.1000000000000D-01 -3.2027559229899D-01  1.5967113097641D+00
43  4.2000000000000D-01 -2.8800382443282D-01  1.5955400363126D+00
44  4.3000000000000D-01 -2.5238693364008D-01  1.5915181890314D+00
45  4.4000000000000D-01 -2.1344282744977D-01  1.5846419548161D+00
46  4.5000000000000D-01 -1.7121096038744D-01  1.5749177685686D+00
47  4.6000000000000D-01 -1.2575285559415D-01  1.5623625763377D+00
48  4.7000000000000D-01 -7.7152455852072D-02  1.5470040337405D+00
49  4.8000000000000D-01 -2.5516296969704D-02  1.5288806366971D+00
50  4.9000000000000D-01  2.9026502028073D-02  1.5080417820457D+00
51  5.0000000000000D-01  8.6324435890178D-02  1.4845477561555D+00
52  5.1000000000000D-01  1.4620399966433D-01  1.4584696502432D+00
53  5.2000000000000D-01  2.0847026543201D-01  1.4298892016940D+00
54  5.3000000000000D-01  2.7290764821607D-01  1.3988985613018D+00
55  5.4000000000000D-01  3.3928085829377D-01  1.3655999869671D+00
56  5.5000000000000D-01  4.0733603541669D-01  1.3301054650112D+00
57  5.6000000000000D-01  4.7680205871989D-01  1.2925362608882D+00
58  5.7000000000000D-01  5.4739202441975D-01  1.2530224016881D+00
59  5.8000000000000D-01  6.1880488175609D-01  1.2117020934207D+00
60  5.9000000000000D-01  6.9072721606426D-01  1.1687210766486D+00
61  6.0000000000000D-01  7.6283516636103D-01  1.1242319245899D+00
62  6.1000000000000D-01  8.3479646343209D-01  1.0783932883304D+00
63  6.2000000000000D-01  9.0627257311345D-01  1.0313690942742D+00
64  6.3000000000000D-01  9.7692092829249D-01  9.8332769940333D-01
65  6.4000000000000D-01  1.0463972321236D+00  9.3444101031801D-01
66  6.5000000000000D-01  1.1143578140669D+00  8.8488357238029D-01
67  6.6000000000000D-01  1.1804620196367D+00  8.3483163558021D-01
68  6.7000000000000D-01  1.2443746141889D+00  7.8446220398590D-01
69  6.8000000000000D-01  1.3057681806925D+00  7.3395207582183D-01
70  6.9000000000000D-01  1.3643254912359D+00  6.8347688134057D-01
71  7.0000000000000D-01  1.4197418319997D+00  6.3321012571294D-01
72  7.1000000000000D-01  1.4717272616039D+00  5.8332224415655D-01
73  7.2000000000000D-01  1.5200087831040D+00  5.3397967645436D-01
74  7.3000000000000D-01  1.5643324104541D+00  4.8534396788221D-01
75  7.4000000000000D-01  1.6044651110026D+00  4.3757090336831D-01
76  7.5000000000000D-01  1.6401966064851D+00  3.9080968145202D-01
77  7.6000000000000D-01  1.6713410160851D+00  3.4520213429070D-01
78  7.7000000000000D-01  1.6977383263702D+00  3.0088199959138D-01
79  7.8000000000000D-01  1.7192556743246D+00  2.5797424991634D-01
80  7.9000000000000D-01  1.7357884312420D+00  2.1659448433510D-01
81  8.0000000000000D-01  1.7472610769157D+00  1.7684838687312D-01
82  8.1000000000000D-01  1.7536278553483D+00  1.3883125564470D-01
83  8.2000000000000D-01  1.7548732050828D+00  1.0262760595939D-01
84  8.3000000000000D-01  1.7510119592147D+00  6.8310850063646D-02
85  8.4000000000000D-01  1.7420893121591D+00  3.5943055527781D-02
86  8.5000000000000D-01  1.7281805523005D+00  5.5747836197522D-03
87  8.6000000000000D-01  1.7093905617286D+00 -2.2754991672663D-02
88  8.7000000000000D-01  1.6858530863279D+00 -4.9018883993468D-02
89  8.8000000000000D-01  1.6577297815400D+00 -7.3201015047524D-02
90  8.9000000000000D-01  1.6252090411191D+00 -9.5296856483188D-02
91  9.0000000000000D-01  1.5885046181347D+00 -1.1531299526062D-01
92  9.1000000000000D-01  1.5478540493335D+00 -1.3326682517207D-01
93  9.2000000000000D-01  1.5035168957139D+00 -1.4918616778546D-01
94  9.3000000000000D-01  1.4557728137952D+00 -1.6310882665257D-01
95  9.4000000000000D-01  1.4049194735440D+00 -1.7508207915304D-01
96  9.5000000000000D-01  1.3512703402465D+00 -1.8516211082877D-01
97  9.6000000000000D-01  1.2951523387710D+00 -1.9341339749592D-01
98  9.7000000000000D-01  1.2369034196350D+00 -1.9990804079941D-01
99  9.8000000000000D-01  1.1768700470626D+00 -2.0472506319302D-01
100  9.9000000000000D-01  1.1154046297906D+00 -2.0794966858478D-01
101  1.0000000000000D+00  1.0528629157322D+00 -2.0967247507549D-01
102  1.0100000000000D+00  9.8960137176026D-01 -2.0998872634885D-01
103  1.0200000000000D+00  9.2597456977986D-01 -2.0899748832249D-01
104  1.0300000000000D+00  8.6233259996878D-01 -2.0680083766013D-01
105  1.0400000000000D+00  7.9901853155607D-01 -2.0350304866673D-01
106  1.0500000000000D+00  7.3636594072743D-01 -1.9920978492854D-01
107  1.0600000000000D+00  6.7469652442788D-01 -1.9402730187584D-01
108  1.0700000000000D+00  6.1431781757122D-01 -1.8806166614004D-01
109  1.0800000000000D+00  5.5552102992371D-01 -1.8141799725856D-01
110  1.0900000000000D+00  4.9857901743785D-01 -1.7419973689076D-01
111  1.1000000000000D+00  4.4374440102598D-01 -1.6650795022469D-01
112  1.1100000000000D+00  3.9124784433419D-01 -1.5844066386558D-01
113  1.1200000000000D+00  3.4129649970940D-01 -1.5009224383658D-01
114  1.1300000000000D+00  2.9407262989153D-01 -1.4155281685282D-01
115  1.1400000000000D+00  2.4973241053909D-01 -1.3290773733713D-01
116  1.1500000000000D+00  2.0840491708996D-01 -1.2423710218414D-01
117  1.1600000000000D+00  1.7019129666172D-01 -1.1561531446652D-01
118  1.1700000000000D+00  1.3516412387197D-01 -1.0711069673950D-01
119  1.1800000000000D+00  1.0336693694194D-01 -9.8785153853494D-02
120  1.1900000000000D+00  7.4813949065853D-02 -9.0693884776014D-02
121  1.2000000000000D+00  4.9489926875190D-02 -8.2885141975174D-02
122  1.2100000000000D+00  2.7350226401063D-02 -7.5400036478667D-02
123  1.2200000000000D+00  8.3209702865361D-03 -6.8272385220453D-02
124  1.2300000000000D+00 -7.7006160271725D-03 -6.1528603790257D-02
125  1.2400000000000D+00 -2.0845861400635D-02 -5.5187613265385D-02
126  1.2500000000000D+00 -3.1273650162165D-02 -4.9260892538302D-02
127  1.2600000000000D+00 -3.9171112747262D-02 -4.3752200590600D-02
128  1.2700000000000D+00 -4.4750925474651D-02 -3.8657990086832D-02
129  1.2800000000000D+00 -4.8243015804186D-02 -3.3968939043272D-02
130  1.2900000000000D+00 -4.9885584193348D-02 -2.9671761250683D-02
131  1.3000000000000D+00 -4.9918291691461D-02 -2.5750645846996D-02
132  1.3100000000000D+00 -4.8581239710392D-02 -2.2187595842660D-02
133  1.3200000000000D+00 -4.6112062553440D-02 -1.8963132946385D-02
134  1.3300000000000D+00 -4.2743452044548D-02 -1.6056922592377D-02
135  1.3400000000000D+00 -3.8700684009928D-02 -1.3448400423097D-02
136  1.3500000000000D+00 -3.4199278898754D-02 -1.1117371555472D-02
137  1.3600000000000D+00 -2.9442765610767D-02 -9.0445865719084D-03
138  1.3700000000000D+00 -2.4620581588251D-02 -7.2122855617976D-03
139  1.3800000000000D+00 -1.9906125605345D-02 -5.6047051061521D-03
140  1.3900000000000D+00 -1.5454980091709D-02 -4.2085431361450D-03
141  1.4000000000000D+00 -1.1403323036341D-02 -3.0133757585706D-03
142  1.4100000000000D+00 -7.8689872349768D-03 -2.0124773713956D-03
143  1.4200000000000D+00 -4.9387653968760D-03 -1.2009897748259D-03
144  1.4300000000000D+00 -2.6679749400620D-03 -5.7751960424746D-04
145  1.4400000000000D+00 -1.1835392071340D-03 -1.5482274769799D-04
146  1.4500000000000D+00 -4.6710824642878D-04  6.3193564229546D-05
147  1.4600000000000D+00 -1.6462443123664D-04  9.2862553075485D-05
148  1.4700000000000D+00 -2.1454702381140D-05  2.0563513226822D-05
149  1.4800000000000D+00  1.2820518305066D-05 -1.5821065109014D-05
150  1.4900000000000D+00  8.1128638038659D-07 -1.2363892564452D-06
151  1.5000000000000D+00 -3.4854111665928D-06  3.2691071181512D-06
152  1.5100000000000D+00  2.4999990889001D-07 -9.0316173708396D-08
153  1.5200000000000D+00  6.9884154657319D-07 -2.5246687006881D-07
154  1.5300000000000D+00  0.0000000000000D+00  0.0000000000000D+00
155  1.5400000000000D+00  0.0000000000000D+00  0.0000000000000D+00
156  1.5500000000000D+00  0.0000000000000D+00  0.0000000000000D+00
157  1.5600000000000D+00  0.0000000000000D+00  0.0000000000000D+00
158  1.5700000000000D+00  0.0000000000000D+00  0.0000000000000D+00
159  1.5800000000000D+00  0.0000000000000D+00  0.0000000000000D+00
160  1.5900000000000D+00  0.0000000000000D+00  0.0000000000000D+00
161  1.6000000000000D+00  0.0000000000000D+00  0.0000000000000D+00
162  1.6100000000000D+00  0.0000000000000D+00  0.0000000000000D+00
163  1.6200000000000D+00  0.0000000000000D+00  0.0000000000000D+00
164  1.6300000000000D+00  0.0000000000000D+00  0.0000000000000D+00
165  1.6400000000000D+00  0.0000000000000D+00  0.0000000000000D+00
166  1.6500000000000D+00  0.0000000000000D+00  0.0000000000000D+00
167  1.6600000000000D+00  0.0000000000000D+00  0.0000000000000D+00
168  1.6700000000000D+00  0.0000000000000D+00  0.0000000000000D+00
169  1.6800000000000D+00  0.0000000000000D+00  0.0000000000000D+00
170  1.6900000000000D+00  0.0000000000000D+00  0.0000000000000D+00
171  1.7000000000000D+00  0.0000000000000D+00  0.0000000000000D+00
172  1.7100000000000D+00  0.0000000000000D+00  0.0000000000000D+00
173  1.7200000000000D+00  0.0000000000000D+00  0.0000000000000D+00
174  1.7300000000000D+00  0.0000000000000D+00  0.0000000000000D+00
175  1.7400000000000D+00  0.0000000000000D+00  0.0000000000000D+00
176  1.7500000000000D+00  0.0000000000000D+00  0.0000000000000D+00
177  1.7600000000000D+00  0.0000000000000D+00  0.0000000000000D+00
178  1.7700000000000D+00  0.0000000000000D+00  0.0000000000000D+00
179  1.7800000000000D+00  0.0000000000000D+00  0.0000000000000D+00
180  1.7900000000000D+00  0.0000000000000D+00  0.0000000000000D+00
181  1.8000000000000D+00  0.0000000000000D+00  0.0000000000000D+00
182  1.8100000000000D+00  0.0000000000000D+00  0.0000000000000D+00
183  1.8200000000000D+00  0.0000000000000D+00  0.0000000000000D+00
184  1.8300000000000D+00  0.0000000000000D+00  0.0000000000000D+00
185  1.8400000000000D+00  0.0000000000000D+00  0.0000000000000D+00
186  1.8500000000000D+00  0.0000000000000D+00  0.0000000000000D+00
187  1.8600000000000D+00  0.0000000000000D+00  0.0000000000000D+00
188  1.8700000000000D+00  0.0000000000000D+00  0.0000000000000D+00
189  1.8800000000000D+00  0.0000000000000D+00  0.0000000000000D+00
190  1.8900000000000D+00  0.0000000000000D+00  0.0000000000000D+00
191  1.9000000000000D+00  0.0000000000000D+00  0.0000000000000D+00
192  1.9100000000000D+00  0.0000000000000D+00  0.0000000000000D+00
193  1.9200000000000D+00  0.0000000000000D+00  0.0000000000000D+00
194  1.9300000000000D+00  0.0000000000000D+00  0.0000000000000D+00
195  1.9400000000000D+00  0.0000000000000D+00  0.0000000000000D+00
196  1.9500000000000D+00  0.0000000000000D+00  0.0000000000000D+00
197  1.9600000000000D+00  0.0000000000000D+00  0.0000000000000D+00
198  1.9700000000000D+00  0.0000000000000D+00  0.0000000000000D+00
199  1.9800000000000D+00  0.0000000000000D+00  0.0000000000000D+00
200  1.9900000000000D+00  0.0000000000000D+00  0.0000000000000D+00
201  2.0000000000000D+00  0.0000000000000D+00  0.0000000000000D+00
202  2.0100000000000D+00  0.0000000000000D+00  0.0000000000000D+00
203  2.0200000000000D+00  0.0000000000000D+00  0.0000000000000D+00
204  2.0300000000000D+00  0.0000000000000D+00  0.0000000000000D+00
205  2.0400000000000D+00  0.0000000000000D+00  0.0000000000000D+00
206  2.0500000000000D+00  0.0000000000000D+00  0.0000000000000D+00
207  2.0600000000000D+00  0.0000000000000D+00  0.0000000000000D+00
208  2.0700000000000D+00  0.0000000000000D+00  0.0000000000000D+00
209  2.0800000000000D+00  0.0000000000000D+00  0.0000000000000D+00
210  2.0900000000000D+00  0.0000000000000D+00  0.0000000000000D+00
211  2.1000000000000D+00  0.0000000000000D+00  0.0000000000000D+00
212  2.1100000000000D+00  0.0000000000000D+00  0.0000000000000D+00
213  2.1200000000000D+00  0.0000000000000D+00  0.0000000000000D+00
214  2.1300000000000D+00  0.0000000000000D+00  0.0000000000000D+00
215  2.1400000000000D+00  0.0000000000000D+00  0.0000000000000D+00
216  2.1500000000000D+00  0.0000000000000D+00  0.0000000000000D+00
217  2.1600000000000D+00  0.0000000000000D+00  0.0000000000000D+00
218  2.1700000000000D+00  0.0000000000000D+00  0.0000000000000D+00
219  2.1800000000000D+00  0.0000000000000D+00  0.0000000000000D+00
220  2.1900000000000D+00  0.0000000000000D+00  0.0000000000000D+00
221  2.2000000000000D+00  0.0000000000000D+00  0.0000000000000D+00
222  2.2100000000000D+00  0.0000000000000D+00  0.0000000000000D+00
223  2.2200000000000D+00  0.0000000000000D+00  0.0000000000000D+00
224  2.2300000000000D+00  0.0000000000000D+00  0.0000000000000D+00
225  2.2400000000000D+00  0.0000000000000D+00  0.0000000000000D+00
226  2.2500000000000D+00  0.0000000000000D+00  0.0000000000000D+00
227  2.2600000000000D+00  0.0000000000000D+00  0.0000000000000D+00
228  2.2700000000000D+00  0.0000000000000D+00  0.0000000000000D+00
229  2.2800000000000D+00  0.0000000000000D+00  0.0000000000000D+00
230  2.2900000000000D+00  0.0000000000000D+00  0.0000000000000D+00
231  2.3000000000000D+00  0.0000000000000D+00  0.0000000000000D+00
232  2.3100000000000D+00  0.0000000000000D+00  0.0000000000000D+00
233  2.3200000000000D+00  0.0000000000000D+00  0.0000000000000D+00
234  2.3300000000000D+00  0.0000000000000D+00  0.0000000000000D+00
235  2.3400000000000D+00  0.0000000000000D+00  0.0000000000000D+00
236  2.3500000000000D+00  0.0000000000000D+00  0.0000000000000D+00
237  2.3600000000000D+00  0.0000000000000D+00  0.0000000000000D+00
238  2.3700000000000D+00  0.0000000000000D+00  0.0000000000000D+00
239  2.3800000000000D+00  0.0000000000000D+00  0.0000000000000D+00
240  2.3900000000000D+00  0.0000000000000D+00  0.0000000000000D+00
241  2.4000000000000D+00  0.0000000000000D+00  0.0000000000000D+00
242  2.4100000000000D+00  0.0000000000000D+00  0.0000000000000D+00
243  2.4200000000000D+00  0.0000000000000D+00  0.0000000000000D+00
244  2.4300000000000D+00  0.0000000000000D+00  0.0000000000000D+00
245  2.4400000000000D+00  0.0000000000000D+00  0.0000000000000D+00
246  2.4500000000000D+00  0.0000000000000D+00  0.0000000000000D+00
247  2.4600000000000D+00  0.0000000000000D+00  0.0000000000000D+00
248  2.4700000000000D+00  0.0000000000000D+00  0.0000000000000D+00
249  2.4800000000000D+00  0.0000000000000D+00  0.0000000000000D+00
250  2.4900000000000D+00  0.0000000000000D+00  0.0000000000000D+00
251  2.5000000000000D+00  0.0000000000000D+00  0.0000000000000D+00
252  2.5100000000000D+00  0.0000000000000D+00  0.0000000000000D+00
253  2.5200000000000D+00  0.0000000000000D+00  0.0000000000000D+00
254  2.5300000000000D+00  0.0000000000000D+00  0.0000000000000D+00
255  2.5400000000000D+00  0.0000000000000D+00  0.0000000000000D+00
256  2.5500000000000D+00  0.0000000000000D+00  0.0000000000000D+00
257  2.5600000000000D+00  0.0000000000000D+00  0.0000000000000D+00
258  2.5700000000000D+00  0.0000000000000D+00  0.0000000000000D+00
259  2.5800000000000D+00  0.0000000000000D+00  0.0000000000000D+00
260  2.5900000000000D+00  0.0000000000000D+00  0.0000000000000D+00
261  2.6000000000000D+00  0.0000000000000D+00  0.0000000000000D+00
262  2.6100000000000D+00  0.0000000000000D+00  0.0000000000000D+00
263  2.6200000000000D+00  0.0000000000000D+00  0.0000000000000D+00
264  2.6300000000000D+00  0.0000000000000D+00  0.0000000000000D+00
265  2.6400000000000D+00  0.0000000000000D+00  0.0000000000000D+00
266  2.6500000000000D+00  0.0000000000000D+00  0.0000000000000D+00
267  2.6600000000000D+00  0.0000000000000D+00  0.0000000000000D+00
268  2.6700000000000D+00  0.0000000000000D+00  0.0000000000000D+00
269  2.6800000000000D+00  0.0000000000000D+00  0.0000000000000D+00
270  2.6900000000000D+00  0.0000000000000D+00  0.0000000000000D+00
271  2.7000000000000D+00  0.0000000000000D+00  0.0000000000000D+00
272  2.7100000000000D+00  0.0000000000000D+00  0.0000000000000D+00
273  2.7200000000000D+00  0.0000000000000D+00  0.0000000000000D+00
274  2.7300000000000D+00  0.0000000000000D+00  0.0000000000000D+00
275  2.7400000000000D+00  0.0000000000000D+00  0.0000000000000D+00
276  2.7500000000000D+00  0.0000000000000D+00  0.0000000000000D+00
277  2.7600000000000D+00  0.0000000000000D+00  0.0000000000000D+00
278  2.7700000000000D+00  0.0000000000000D+00  0.0000000000000D+00
279  2.7800000000000D+00  0.0000000000000D+00  0.0000000000000D+00
280  2.7900000000000D+00  0.0000000000000D+00  0.0000000000000D+00
281  2.8000000000000D+00  0.0000000000000D+00  0.0000000000000D+00
282  2.8100000000000D+00  0.0000000000000D+00  0.0000000000000D+00
283  2.8200000000000D+00  0.0000000000000D+00  0.0000000000000D+00
284  2.8300000000000D+00  0.0000000000000D+00  0.0000000000000D+00
285  2.8400000000000D+00  0.0000000000000D+00  0.0000000000000D+00
286  2.8500000000000D+00  0.0000000000000D+00  0.0000000000000D+00
287  2.8600000000000D+00  0.0000000000000D+00  0.0000000000000D+00
288  2.8700000000000D+00  0.0000000000000D+00  0.0000000000000D+00
289  2.8800000000000D+00  0.0000000000000D+00  0.0000000000000D+00
290  2.8900000000000D+00  0.0000000000000D+00  0.0000000000000D+00
291  2.9000000000000D+00  0.0000000000000D+00  0.0000000000000D+00
292  2.9100000000000D+00  0.0000000000000D+00  0.0000000000000D+00
293  2.9200000000000D+00  0.0000000000000D+00  0.0000000000000D+00
294  2.9300000000000D+00  0.0000000000000D+00  0.0000000000000D+00
295  2.9400000000000D+00  0.0000000000000D+00  0.0000000000000D+00
296  2.9500000000000D+00  0.0000000000000D+00  0.0000000000000D+00
297  2.9600000000000D+00  0.0000000000000D+00  0.0000000000000D+00
298  2.9700000000000D+00  0.0000000000000D+00  0.0000000000000D+00
299  2.9800000000000D+00  0.0000000000000D+00  0.0000000000000D+00
300  2.9900000000000D+00  0.0000000000000D+00  0.0000000000000D+00
301  3.0000000000000D+00  0.0000000000000D+00  0.0000000000000D+00
302  3.0100000000000D+00  0.0000000000000D+00  0.0000000000000D+00
303  3.0200000000000D+00  0.0000000000000D+00  0.0000000000000D+00
304  3.0300000000000D+00  0.0000000000000D+00  0.0000000000000D+00
305  3.0400000000000D+00  0.0000000000000D+00  0.0000000000000D+00
306  3.0500000000000D+00  0.0000000000000D+00  0.0000000000000D+00
307  3.0600000000000D+00  0.0000000000000D+00  0.0000000000000D+00
308  3.0700000000000D+00  0.0000000000000D+00  0.0000000000000D+00
309  3.0800000000000D+00  0.0000000000000D+00  0.0000000000000D+00
310  3.0900000000000D+00  0.0000000000000D+00  0.0000000000000D+00
311  3.1000000000000D+00  0.0000000000000D+00  0.0000000000000D+00
312  3.1100000000000D+00  0.0000000000000D+00  0.0000000000000D+00
313  3.1200000000000D+00  0.0000000000000D+00  0.0000000000000D+00
314  3.1300000000000D+00  0.0000000000000D+00  0.0000000000000D+00
315  3.1400000000000D+00  0.0000000000000D+00  0.0000000000000D+00
316  3.1500000000000D+00  0.0000000000000D+00  0.0000000000000D+00
317  3.1600000000000D+00  0.0000000000000D+00  0.0000000000000D+00
318  3.1700000000000D+00  0.0000000000000D+00  0.0000000000000D+00
319  3.1800000000000D+00  0.0000000000000D+00  0.0000000000000D+00
320  3.1900000000000D+00  0.0000000000000D+00  0.0000000000000D+00
321  3.2000000000000D+00  0.0000000000000D+00  0.0000000000000D+00
322  3.2100000000000D+00  0.0000000000000D+00  0.0000000000000D+00
323  3.2200000000000D+00  0.0000000000000D+00  0.0000000000000D+00
324  3.2300000000000D+00  0.0000000000000D+00  0.0000000000000D+00
325  3.2400000000000D+00  0.0000000000000D+00  0.0000000000000D+00
326  3.2500000000000D+00  0.0000000000000D+00  0.0000000000000D+00
327  3.2600000000000D+00  0.0000000000000D+00  0.0000000000000D+00
328  3.2700000000000D+00  0.0000000000000D+00  0.0000000000000D+00
329  3.2800000000000D+00  0.0000000000000D+00  0.0000000000000D+00
330  3.2900000000000D+00  0.0000000000000D+00  0.0000000000000D+00
331  3.3000000000000D+00  0.0000000000000D+00  0.0000000000000D+00
332  3.3100000000000D+00  0.0000000000000D+00  0.0000000000000D+00
333  3.3200000000000D+00  0.0000000000000D+00  0.0000000000000D+00
334  3.3300000000000D+00  0.0000000000000D+00  0.0000000000000D+00
335  3.3400000000000D+00  0.0000000000000D+00  0.0000000000000D+00
336  3.3500000000000D+00  0.0000000000000D+00  0.0000000000000D+00
337  3.3600000000000D+00  0.0000000000000D+00  0.0000000000000D+00
338  3.3700000000000D+00  0.0000000000000D+00  0.0000000000000D+00
339  3.3800000000000D+00  0.0000000000000D+00  0.0000000000000D+00
340  3.3900000000000D+00  0.0000000000000D+00  0.0000000000000D+00
341  3.4000000000000D+00  0.0000000000000D+00  0.0000000000000D+00
342  3.4100000000000D+00  0.0000000000000D+00  0.0000000000000D+00
343  3.4200000000000D+00  0.0000000000000D+00  0.0000000000000D+00
344  3.4300000000000D+00  0.0000000000000D+00  0.0000000000000D+00
345  3.4400000000000D+00  0.0000000000000D+00  0.0000000000000D+00
346  3.4500000000000D+00  0.0000000000000D+00  0.0000000000000D+00
347  3.4600000000000D+00  0.0000000000000D+00  0.0000000000000D+00
348  3.4700000000000D+00  0.0000000000000D+00  0.0000000000000D+00
349  3.4800000000000D+00  0.0000000000000D+00  0.0000000000000D+00
350  3.4900000000000D+00  0.0000000000000D+00  0.0000000000000D+00
351  3.5000000000000D+00  0.0000000000000D+00  0.0000000000000D+00
352  3.5100000000000D+00  0.0000000000000D+00  0.0000000000000D+00
353  3.5200000000000D+00  0.0000000000000D+00  0.0000000000000D+00
354  3.5300000000000D+00  0.0000000000000D+00  0.0000000000000D+00
355  3.5400000000000D+00  0.0000000000000D+00  0.0000000000000D+00
356  3.5500000000000D+00  0.0000000000000D+00  0.0000000000000D+00
357  3.5600000000000D+00  0.0000000000000D+00  0.0000000000000D+00
358  3.5700000000000D+00  0.0000000000000D+00  0.0000000000000D+00
359  3.5800000000000D+00  0.0000000000000D+00  0.0000000000000D+00
360  3.5900000000000D+00  0.0000000000000D+00  0.0000000000000D+00
361  3.6000000000000D+00  0.0000000000000D+00  0.0000000000000D+00
362  3.6100000000000D+00  0.0000000000000D+00  0.0000000000000D+00
363  3.6200000000000D+00  0.0000000000000D+00  0.0000000000000D+00
364  3.6300000000000D+00  0.0000000000000D+00  0.0000000000000D+00
365  3.6400000000000D+00  0.0000000000000D+00  0.0000000000000D+00
366  3.6500000000000D+00  0.0000000000000D+00  0.0000000000000D+00
367  3.6600000000000D+00  0.0000000000000D+00  0.0000000000000D+00
368  3.6700000000000D+00  0.0000000000000D+00  0.0000000000000D+00
369  3.6800000000000D+00  0.0000000000000D+00  0.0000000000000D+00
370  3.6900000000000D+00  0.0000000000000D+00  0.0000000000000D+00
371  3.7000000000000D+00  0.0000000000000D+00  0.0000000000000D+00
372  3.7100000000000D+00  0.0000000000000D+00  0.0000000000000D+00
373  3.7200000000000D+00  0.0000000000000D+00  0.0000000000000D+00
374  3.7300000000000D+00  0.0000000000000D+00  0.0000000000000D+00
375  3.7400000000000D+00  0.0000000000000D+00  0.0000000000000D+00
376  3.7500000000000D+00  0.0000000000000D+00  0.0000000000000D+00
377  3.7600000000000D+00  0.0000000000000D+00  0.0000000000000D+00
378  3.7700000000000D+00  0.0000000000000D+00  0.0000000000000D+00
379  3.7800000000000D+00  0.0000000000000D+00  0.0000000000000D+00
380  3.7900000000000D+00  0.0000000000000D+00  0.0000000000000D+00
381  3.8000000000000D+00  0.0000000000000D+00  0.0000000000000D+00
382  3.8100000000000D+00  0.0000000000000D+00  0.0000000000000D+00
383  3.8200000000000D+00  0.0000000000000D+00  0.0000000000000D+00
384  3.8300000000000D+00  0.0000000000000D+00  0.0000000000000D+00
385  3.8400000000000D+00  0.0000000000000D+00  0.0000000000000D+00
386  3.8500000000000D+00  0.0000000000000D+00  0.0000000000000D+00
387  3.8600000000000D+00  0.0000000000000D+00  0.0000000000000D+00
388  3.8700000000000D+00  0.0000000000000D+00  0.0000000000000D+00
389  3.8800000000000D+00  0.0000000000000D+00  0.0000000000000D+00
390  3.8900000000000D+00  0.0000000000000D+00  0.0000000000000D+00
391  3.9000000000000D+00  0.0000000000000D+00  0.0000000000000D+00
392  3.9100000000000D+00  0.0000000000000D+00  0.0000000000000D+00
393  3.9200000000000D+00  0.0000000000000D+00  0.0000000000000D+00
394  3.9300000000000D+00  0.0000000000000D+00  0.0000000000000D+00
395  3.9400000000000D+00  0.0000000000000D+00  0.0000000000000D+00
396  3.9500000000000D+00  0.0000000000000D+00  0.0000000000000D+00
397  3.9600000000000D+00  0.0000000000000D+00  0.0000000000000D+00
398  3.9700000000000D+00  0.0000000000000D+00  0.0000000000000D+00
399  3.9800000000000D+00  0.0000000000000D+00  0.0000000000000D+00
400  3.9900000000000D+00  0.0000000000000D+00  0.0000000000000D+00
401  4.0000000000000D+00  0.0000000000000D+00  0.0000000000000D+00
402  4.0100000000000D+00  0.0000000000000D+00  0.0000000000000D+00
403  4.0200000000000D+00  0.0000000000000D+00  0.0000000000000D+00
404  4.0300000000000D+00  0.0000000000000D+00  0.0000000000000D+00
405  4.0400000000000D+00  0.0000000000000D+00  0.0000000000000D+00
406  4.0500000000000D+00  0.0000000000000D+00  0.0000000000000D+00
407  4.0600000000000D+00  0.0000000000000D+00  0.0000000000000D+00
408  4.0700000000000D+00  0.0000000000000D+00  0.0000000000000D+00
409  4.0800000000000D+00  0.0000000000000D+00  0.0000000000000D+00
410  4.0900000000000D+00  0.0000000000000D+00  0.0000000000000D+00
411  4.1000000000000D+00  0.0000000000000D+00  0.0000000000000D+00
412  4.1100000000000D+00  0.0000000000000D+00  0.0000000000000D+00
413  4.1200000000000D+00  0.0000000000000D+00  0.0000000000000D+00
414  4.1300000000000D+00  0.0000000000000D+00  0.0000000000000D+00
415  4.1400000000000D+00  0.0000000000000D+00  0.0000000000000D+00
416  4.1500000000000D+00  0.0000000000000D+00  0.0000000000000D+00
417  4.1600000000000D+00  0.0000000000000D+00  0.0000000000000D+00
418  4.1700000000000D+00  0.0000000000000D+00  0.0000000000000D+00
419  4.1800000000000D+00  0.0000000000000D+00  0.0000000000000D+00
420  4.1900000000000D+00  0.0000000000000D+00  0.0000000000000D+00
421  4.2000000000000D+00  0.0000000000000D+00  0.0000000000000D+00
422  4.2100000000000D+00  0.0000000000000D+00  0.0000000000000D+00
423  4.2200000000000D+00  0.0000000000000D+00  0.0000000000000D+00
424  4.2300000000000D+00  0.0000000000000D+00  0.0000000000000D+00
425  4.2400000000000D+00  0.0000000000000D+00  0.0000000000000D+00
426  4.2500000000000D+00  0.0000000000000D+00  0.0000000000000D+00
427  4.2600000000000D+00  0.0000000000000D+00  0.0000000000000D+00
428  4.2700000000000D+00  0.0000000000000D+00  0.0000000000000D+00
429  4.2800000000000D+00  0.0000000000000D+00  0.0000000000000D+00
430  4.2900000000000D+00  0.0000000000000D+00  0.0000000000000D+00
431  4.3000000000000D+00  0.0000000000000D+00  0.0000000000000D+00
432  4.3100000000000D+00  0.0000000000000D+00  0.0000000000000D+00
433  4.3200000000000D+00  0.0000000000000D+00  0.0000000000000D+00
434  4.3300000000000D+00  0.0000000000000D+00  0.0000000000000D+00
435  4.3400000000000D+00  0.0000000000000D+00  0.0000000000000D+00
436  4.3500000000000D+00  0.0000000000000D+00  0.0000000000000D+00
437  4.3600000000000D+00  0.0000000000000D+00  0.0000000000000D+00
438  4.3700000000000D+00  0.0000000000000D+00  0.0000000000000D+00
439  4.3800000000000D+00  0.0000000000000D+00  0.0000000000000D+00
440  4.3900000000000D+00  0.0000000000000D+00  0.0000000000000D+00
441  4.4000000000000D+00  0.0000000000000D+00  0.0000000000000D+00
442  4.4100000000000D+00  0.0000000000000D+00  0.0000000000000D+00
443  4.4200000000000D+00  0.0000000000000D+00  0.0000000000000D+00