Nb    ONCVPSP-3.3.0  r_core=   1.50879   1.40458   1.40458
41.0000     13.0000      180430    zatom,zion,pspd
8 -116133   2     4   600     0    pspcod,pspxc,lmax,lloc,mmax,r2well
5.99000000  5.00000000  0.00000000    rchrg fchrg qchrg
2     3     3     0    nproj
3     1           extension_switch
4     3     0    nprojso
0                         1.3435985697717D+00  1.2951723312143D+01
1  0.0000000000000D+00 -3.4560307393683D-10  1.3641565654865D-10
2  1.0000000000000D-02 -1.5546994221999D-02  5.0782729003776D-02
3  2.0000000000000D-02 -3.1128190959638D-02  1.0154144536443D-01
4  3.0000000000000D-02 -4.6776759456819D-02  1.5225174100047D-01
5  4.0000000000000D-02 -6.2523813067676D-02  2.0288842122036D-01
6  5.0000000000000D-02 -7.8397407858031D-02  2.5342512204966D-01
7  6.0000000000000D-02 -9.4421572816885D-02  3.0383394021979D-01
8  7.0000000000000D-02 -1.1061538180709D-01  3.5408507987801D-01
9  8.0000000000000D-02 -1.2699207703874D-01  4.0414651994197D-01
10  9.0000000000000D-02 -1.4355825342133D-01  4.5398370585320D-01
11  1.0000000000000D-01 -1.6031311264412D-01  5.0355926928445D-01
12  1.1000000000000D-01 -1.7724779525257D-01  5.5283277912591D-01
13  1.2000000000000D-01 -1.9434479833545D-01  6.0176052681830D-01
14  1.3000000000000D-01 -2.1157748571779D-01  6.5029534881667D-01
15  1.4000000000000D-01 -2.2890969677337D-01  6.9838648866155D-01
16  1.5000000000000D-01 -2.4629545913362D-01  7.4597950080376D-01
17  1.6000000000000D-01 -2.6367880968287D-01  7.9301619798057D-01
18  1.7000000000000D-01 -2.8099372729948D-01  8.3943464357440D-01
19  1.8000000000000D-01 -2.9816417983604D-01  8.8516919000533D-01
20  1.9000000000000D-01 -3.1510428683518D-01  9.3015056381640D-01
21  2.0000000000000D-01 -3.3171859846055D-01  9.7430599771118D-01
22  2.1000000000000D-01 -3.4790249008977D-01  1.0175594093969D+00
23  2.2000000000000D-01 -3.6354267097891D-01  1.0598316266791D+00
24  2.3000000000000D-01 -3.7851780437193D-01  1.1010406578453D+00
25  2.4000000000000D-01 -3.9269923540259D-01  1.1411020059752D+00
26  2.5000000000000D-01 -4.0595182212971D-01  1.1799290254140D+00
27  2.6000000000000D-01 -4.1813486406599D-01  1.2174333182647D+00
28  2.7000000000000D-01 -4.2910312161522D-01  1.2535251683806D+00
29  2.8000000000000D-01 -4.3870791893061D-01  1.2881140099834D+00
30  2.9000000000000D-01 -4.4679832185518D-01  1.3211089276965D+00
31  3.0000000000000D-01 -4.5322238181237D-01  1.3524191844709D+00
32  3.1000000000000D-01 -4.5782843578759D-01  1.3819547735883D+00
33  3.2000000000000D-01 -4.6046645188699D-01  1.4096269906703D+00
34  3.3000000000000D-01 -4.6098940938420D-01  1.4353490213853D+00
35  3.4000000000000D-01 -4.5925470167505D-01  1.4590365403522D+00
36  3.5000000000000D-01 -4.5512555016050D-01  1.4806083165690D+00
37  3.6000000000000D-01 -4.4847241677281D-01  1.4999868205709D+00
38  3.7000000000000D-01 -4.3917440265428D-01  1.5170988284276D+00
39  3.8000000000000D-01 -4.2712062039470D-01  1.5318760176376D+00
40  3.9000000000000D-01 -4.1221152723506D-01  1.5442555499643D+00
41  4.0000000000000D-01 -3.9436020675441D-01  1.5541806362856D+00
42  4.1000000000000D-01 -3.7349358677218D-01  1.5616010785937D+00
43  4.2000000000000D-01 -3.4955358152318D-01  1.5664737843911D+00
44  4.3000000000000D-01 -3.2249814659243D-01  1.5687632488772D+00
45  4.4000000000000D-01 -2.9230223563361D-01  1.5684420005013D+00
46  4.5000000000000D-01 -2.5895864853231D-01  1.5654910056896D+00
47  4.6000000000000D-01 -2.2247876141231D-01  1.5599000288094D+00
48  4.7000000000000D-01 -1.8289312971355D-01  1.5516679437348D+00
49  4.8000000000000D-01 -1.4025195648949D-01  1.5408029937057D+00
50  4.9000000000000D-01 -9.4625419073357D-02  1.5273229965342D+00
51  5.0000000000000D-01 -4.6103848338315D-02  1.5112554926010D+00
52  5.1000000000000D-01  5.2022440796672D-03  1.4926378335014D+00
53  5.2000000000000D-01  5.9162294025991D-02  1.4715172096335D+00
54  5.3000000000000D-01  1.1562597071829D-01  1.4479506154815D+00
55  5.4000000000000D-01  1.7442362117439D-01  1.4220047518157D+00
56  5.5000000000000D-01  2.3536687275048D-01  1.3937558645161D+00
57  5.6000000000000D-01  2.9824939202710D-01  1.3632895202146D+00
58  5.7000000000000D-01  3.6284779694218D-01  1.3307003194484D+00
59  5.8000000000000D-01  4.2892271773216D-01  1.2960915485098D+00
60  5.9000000000000D-01  4.9622000092891D-01  1.2595747716672D+00
61  6.0000000000000D-01  5.6447204936865D-01  1.2212693659141D+00
62  6.1000000000000D-01  6.3339928992546D-01  1.1813020008711D+00
63  6.2000000000000D-01  7.0271175948557D-01  1.1398060669150D+00
64  6.3000000000000D-01  7.7211079855068D-01  1.0969210550442D+00
65  6.4000000000000D-01  8.4129084080387D-01  1.0527918923879D+00
66  6.5000000000000D-01  9.0994128600127D-01  1.0075682376524D+00
67  6.6000000000000D-01  9.7774844268079D-01  9.6140374113582D-01
68  6.7000000000000D-01  1.0443975264104D+00  9.1445527425468D-01
69  6.8000000000000D-01  1.1095746986402D+00  8.6688213380081D-01
70  6.9000000000000D-01  1.1729691306903D+00  8.1884522637307D-01
71  7.0000000000000D-01  1.2342750769939D+00  7.7050623861958D-01
72  7.1000000000000D-01  1.2931939414408D+00  7.2202679906835D-01
73  7.2000000000000D-01  1.3494363205252D+00  6.7356763742031D-01
74  7.3000000000000D-01  1.4027240069965D+00  6.2528774722753D-01
75  7.4000000000000D-01  1.4527919378587D+00  5.7734355787930D-01
76  7.5000000000000D-01  1.4993900708335D+00  5.2988812177071D-01
77  7.6000000000000D-01  1.5422851738333D+00  4.8307032243045D-01
78  7.7000000000000D-01  1.5812625125403D+00  4.3703410923949D-01
79  7.8000000000000D-01  1.6161274218853D+00  3.9191776418029D-01
80  7.9000000000000D-01  1.6467067480406D+00  3.4785320581789D-01
81  8.0000000000000D-01  1.6728501484832D+00  3.0496533543345D-01
82  8.1000000000000D-01  1.6944312387507D+00  2.6337142990764D-01
83  8.2000000000000D-01  1.7113485756726D+00  2.2318058559052D-01
84  8.3000000000000D-01  1.7235264681286D+00  1.8449321699785D-01
85  8.4000000000000D-01  1.7309156077332D+00  1.4740061374543D-01
86  8.5000000000000D-01  1.7334935132683D+00  1.1198455867606D-01
87  8.6000000000000D-01  1.7312647841748D+00  7.8317009653617D-02
88  8.7000000000000D-01  1.7242611599416D+00  4.6459846997758D-02
89  8.8000000000000D-01  1.7125413838025D+00  1.6464688017394D-02
90  8.9000000000000D-01  1.6961908707331D+00 -1.1627230425190D-02
91  9.0000000000000D-01  1.6753211813326D+00 -3.7785100919371D-02
92  9.1000000000000D-01  1.6500693047540D+00 -6.1988526212992D-02
93  9.2000000000000D-01  1.6205967553996D+00 -8.4227432281782D-02
94  9.3000000000000D-01  1.5870884896115D+00 -1.0450191494170D-01
95  9.4000000000000D-01  1.5497516500445D+00 -1.2282202168991D-01
96  9.5000000000000D-01  1.5088141467946D+00 -1.3920747094683D-01
97  9.6000000000000D-01  1.4645230856603D+00 -1.5368731133558D-01
98  9.7000000000000D-01  1.4171430551220D+00 -1.6629952407043D-01
99  9.8000000000000D-01  1.3669542847208D+00 -1.7709057193196D-01
100  9.9000000000000D-01  1.3142506884999D+00 -1.8611489867494D-01
101  1.0000000000000D+00  1.2593378080058D+00 -1.9343438304073D-01
102  1.0100000000000D+00  1.2025306700806D+00 -1.9911775184423D-01
103  1.0200000000000D+00  1.1441515752168D+00 -2.0323995683989D-01
104  1.0300000000000D+00  1.0845278326681D+00 -2.0588152027291D-01
105  1.0400000000000D+00  1.0239894587630D+00 -2.0712785416944D-01
106  1.0500000000000D+00  9.6286685494584D-01 -2.0706855851651D-01
107  1.0600000000000D+00  9.0148848203531D-01 -2.0579670353322D-01
108  1.0700000000000D+00  8.4017854693210D-01 -2.0340810123239D-01
109  1.0800000000000D+00  7.7925471763613D-01 -2.0000057141699D-01
110  1.0900000000000D+00  7.1902588189061D-01 -1.9567320715513D-01
111  1.1000000000000D+00  6.5978996402284D-01 -1.9052564461135D-01
112  1.1100000000000D+00  6.0183181387153D-01 -1.8465734195426D-01
113  1.1200000000000D+00  5.4542118051630D-01 -1.7816687176752D-01
114  1.1300000000000D+00  4.9081078259047D-01 -1.7115123114778D-01
115  1.1400000000000D+00  4.3823448553539D-01 -1.6370517329301D-01
116  1.1500000000000D+00  3.8790559523758D-01 -1.5592056413789D-01
117  1.1600000000000D+00  3.4001527562370D-01 -1.4788576707572D-01
118  1.1700000000000D+00  2.9473109659689D-01 -1.3968505846927D-01
119  1.1800000000000D+00  2.5219571692589D-01 -1.3139807614613D-01
120  1.1900000000000D+00  2.1252570563351D-01 -1.2309930277086D-01
121  1.2000000000000D+00  1.7581050311276D-01 -1.1485758530945D-01
122  1.2100000000000D+00  1.4211152189075D-01 -1.0673569141192D-01
123  1.2200000000000D+00  1.1146138174990D-01 -9.8789902399524D-02
124  1.2300000000000D+00  8.3863299729565D-02 -9.1069647315892D-02
125  1.2400000000000D+00  5.9290521715605D-02 -8.3617155953336D-02
126  1.2500000000000D+00  3.7686338391006D-02 -7.6467239307776D-02
127  1.2600000000000D+00  1.8962758759664D-02 -6.9646815741847D-02
128  1.2700000000000D+00  3.0018839307429D-03 -6.3174978616571D-02
129  1.2800000000000D+00 -1.0337597119259D-02 -5.7064061717407D-02
130  1.2900000000000D+00 -2.1213253737212D-02 -5.1320976428431D-02
131  1.3000000000000D+00 -2.9793289821180D-02 -4.5948320568159D-02
132  1.3100000000000D+00 -3.6256016534954D-02 -4.0944556506137D-02
133  1.3200000000000D+00 -4.0787667682993D-02 -3.6304509613255D-02
134  1.3300000000000D+00 -4.3580444062418D-02 -3.2019834565544D-02
135  1.3400000000000D+00 -4.4830484647281D-02 -2.8079505870852D-02
136  1.3500000000000D+00 -4.4735856324048D-02 -2.4470312514005D-02
137  1.3600000000000D+00 -4.3494537414194D-02 -2.1177359640438D-02
138  1.3700000000000D+00 -4.1302421682196D-02 -1.8184570419251D-02
139  1.3800000000000D+00 -3.8351360023333D-02 -1.5475182962986D-02
140  1.3900000000000D+00 -3.4827256218660D-02 -1.3032237434077D-02
141  1.4000000000000D+00 -3.0908234171619D-02 -1.0839048153507D-02
142  1.4100000000000D+00 -2.6762890942524D-02 -8.8796563978950D-03
143  1.4200000000000D+00 -2.2548651509930D-02 -7.1392591066249D-03
144  1.4300000000000D+00 -1.8410239464631D-02 -5.6046092408469D-03
145  1.4400000000000D+00 -1.4478275814117D-02 -4.2643841271288D-03
146  1.4500000000000D+00 -1.0868018951788D-02 -3.1095177284456D-03
147  1.4600000000000D+00 -7.6799529740438D-03 -2.1338499302766D-03
148  1.4700000000000D+00 -4.9919730778591D-03 -1.3329408126254D-03
149  1.4800000000000D+00 -2.8514534578174D-03 -7.0378826912708D-04
150  1.4900000000000D+00 -1.3500937217244D-03 -2.5595722958760D-04
151  1.5000000000000D+00 -5.4406532457765D-04  3.7863243379817D-06
152  1.5100000000000D+00 -2.0165402688071D-04  8.8104666360114D-05
153  1.5200000000000D+00 -4.6521252721966D-05  4.5121253050635D-05
154  1.5300000000000D+00  6.6042331344252D-06 -9.0995577222028D-06
155  1.5400000000000D+00  5.1766063324650D-06 -9.7178599562926D-06
156  1.5500000000000D+00 -2.1958788173787D-06  2.3651703248206D-06
157  1.5600000000000D+00 -1.3737222424193D-06  1.6278440361047D-06
158  1.5700000000000D+00  5.9399339705659D-07 -2.2376619812392D-07
159  1.5800000000000D+00  2.5387121943386D-07 -9.5637085979908D-08
160  1.5900000000000D+00  0.0000000000000D+00  0.0000000000000D+00
161  1.6000000000000D+00  0.0000000000000D+00  0.0000000000000D+00
162  1.6100000000000D+00  0.0000000000000D+00  0.0000000000000D+00
163  1.6200000000000D+00  0.0000000000000D+00  0.0000000000000D+00
164  1.6300000000000D+00  0.0000000000000D+00  0.0000000000000D+00
165  1.6400000000000D+00  0.0000000000000D+00  0.0000000000000D+00
166  1.6500000000000D+00  0.0000000000000D+00  0.0000000000000D+00
167  1.6600000000000D+00  0.0000000000000D+00  0.0000000000000D+00
168  1.6700000000000D+00  0.0000000000000D+00  0.0000000000000D+00
169  1.6800000000000D+00  0.0000000000000D+00  0.0000000000000D+00
170  1.6900000000000D+00  0.0000000000000D+00  0.0000000000000D+00
171  1.7000000000000D+00  0.0000000000000D+00  0.0000000000000D+00
172  1.7100000000000D+00  0.0000000000000D+00  0.0000000000000D+00
173  1.7200000000000D+00  0.0000000000000D+00  0.0000000000000D+00
174  1.7300000000000D+00  0.0000000000000D+00  0.0000000000000D+00
175  1.7400000000000D+00  0.0000000000000D+00  0.0000000000000D+00
176  1.7500000000000D+00  0.0000000000000D+00  0.0000000000000D+00
177  1.7600000000000D+00  0.0000000000000D+00  0.0000000000000D+00
178  1.7700000000000D+00  0.0000000000000D+00  0.0000000000000D+00
179  1.7800000000000D+00  0.0000000000000D+00  0.0000000000000D+00
180  1.7900000000000D+00  0.0000000000000D+00  0.0000000000000D+00
181  1.8000000000000D+00  0.0000000000000D+00  0.0000000000000D+00
182  1.8100000000000D+00  0.0000000000000D+00  0.0000000000000D+00
183  1.8200000000000D+00  0.0000000000000D+00  0.0000000000000D+00
184  1.8300000000000D+00  0.0000000000000D+00  0.0000000000000D+00
185  1.8400000000000D+00  0.0000000000000D+00  0.0000000000000D+00
186  1.8500000000000D+00  0.0000000000000D+00  0.0000000000000D+00
187  1.8600000000000D+00  0.0000000000000D+00  0.0000000000000D+00
188  1.8700000000000D+00  0.0000000000000D+00  0.0000000000000D+00
189  1.8800000000000D+00  0.0000000000000D+00  0.0000000000000D+00
190  1.8900000000000D+00  0.0000000000000D+00  0.0000000000000D+00
191  1.9000000000000D+00  0.0000000000000D+00  0.0000000000000D+00
192  1.9100000000000D+00  0.0000000000000D+00  0.0000000000000D+00
193  1.9200000000000D+00  0.0000000000000D+00  0.0000000000000D+00
194  1.9300000000000D+00  0.0000000000000D+00  0.0000000000000D+00
195  1.9400000000000D+00  0.0000000000000D+00  0.0000000000000D+00
196  1.9500000000000D+00  0.0000000000000D+00  0.0000000000000D+00
197  1.9600000000000D+00  0.0000000000000D+00  0.0000000000000D+00
198  1.9700000000000D+00  0.0000000000000D+00  0.0000000000000D+00
199  1.9800000000000D+00  0.0000000000000D+00  0.0000000000000D+00
200  1.9900000000000D+00  0.0000000000000D+00  0.0000000000000D+00
201  2.0000000000000D+00  0.0000000000000D+00  0.0000000000000D+00
202  2.0100000000000D+00  0.0000000000000D+00  0.0000000000000D+00
203  2.0200000000000D+00  0.0000000000000D+00  0.0000000000000D+00
204  2.0300000000000D+00  0.0000000000000D+00  0.0000000000000D+00
205  2.0400000000000D+00  0.0000000000000D+00  0.0000000000000D+00
206  2.0500000000000D+00  0.0000000000000D+00  0.0000000000000D+00
207  2.0600000000000D+00  0.0000000000000D+00  0.0000000000000D+00
208  2.0700000000000D+00  0.0000000000000D+00  0.0000000000000D+00
209  2.0800000000000D+00  0.0000000000000D+00  0.0000000000000D+00
210  2.0900000000000D+00  0.0000000000000D+00  0.0000000000000D+00
211  2.1000000000000D+00  0.0000000000000D+00  0.0000000000000D+00
212  2.1100000000000D+00  0.0000000000000D+00  0.0000000000000D+00
213  2.1200000000000D+00  0.0000000000000D+00  0.0000000000000D+00
214  2.1300000000000D+00  0.0000000000000D+00  0.0000000000000D+00
215  2.1400000000000D+00  0.0000000000000D+00  0.0000000000000D+00
216  2.1500000000000D+00  0.0000000000000D+00  0.0000000000000D+00
217  2.1600000000000D+00  0.0000000000000D+00  0.0000000000000D+00
218  2.1700000000000D+00  0.0000000000000D+00  0.0000000000000D+00
219  2.1800000000000D+00  0.0000000000000D+00  0.0000000000000D+00
220  2.1900000000000D+00  0.0000000000000D+00  0.0000000000000D+00
221  2.2000000000000D+00  0.0000000000000D+00  0.0000000000000D+00
222  2.2100000000000D+00  0.0000000000000D+00  0.0000000000000D+00
223  2.2200000000000D+00  0.0000000000000D+00  0.0000000000000D+00
224  2.2300000000000D+00  0.0000000000000D+00  0.0000000000000D+00
225  2.2400000000000D+00  0.0000000000000D+00  0.0000000000000D+00
226  2.2500000000000D+00  0.0000000000000D+00  0.0000000000000D+00
227  2.2600000000000D+00  0.0000000000000D+00  0.0000000000000D+00
228  2.2700000000000D+00  0.0000000000000D+00  0.0000000000000D+00
229  2.2800000000000D+00  0.0000000000000D+00  0.0000000000000D+00
230  2.2900000000000D+00  0.0000000000000D+00  0.0000000000000D+00
231  2.3000000000000D+00  0.0000000000000D+00  0.0000000000000D+00
232  2.3100000000000D+00  0.0000000000000D+00  0.0000000000000D+00
233  2.3200000000000D+00  0.0000000000000D+00  0.0000000000000D+00
234  2.3300000000000D+00  0.0000000000000D+00  0.0000000000000D+00
235  2.3400000000000D+00  0.0000000000000D+00  0.0000000000000D+00
236  2.3500000000000D+00  0.0000000000000D+00  0.0000000000000D+00
237  2.3600000000000D+00  0.0000000000000D+00  0.0000000000000D+00
238  2.3700000000000D+00  0.0000000000000D+00  0.0000000000000D+00
239  2.3800000000000D+00  0.0000000000000D+00  0.0000000000000D+00
240  2.3900000000000D+00  0.0000000000000D+00  0.0000000000000D+00
241  2.4000000000000D+00  0.0000000000000D+00  0.0000000000000D+00
242  2.4100000000000D+00  0.0000000000000D+00  0.0000000000000D+00
243  2.4200000000000D+00  0.0000000000000D+00  0.0000000000000D+00
244  2.4300000000000D+00  0.0000000000000D+00  0.0000000000000D+00
245  2.4400000000000D+00  0.0000000000000D+00  0.0000000000000D+00
246  2.4500000000000D+00  0.0000000000000D+00  0.0000000000000D+00
247  2.4600000000000D+00  0.0000000000000D+00  0.0000000000000D+00
248  2.4700000000000D+00  0.0000000000000D+00  0.0000000000000D+00
249  2.4800000000000D+00  0.0000000000000D+00  0.0000000000000D+00
250  2.4900000000000D+00  0.0000000000000D+00  0.0000000000000D+00
251  2.5000000000000D+00  0.0000000000000D+00  0.0000000000000D+00
252  2.5100000000000D+00  0.0000000000000D+00  0.0000000000000D+00
253  2.5200000000000D+00  0.0000000000000D+00  0.0000000000000D+00
254  2.5300000000000D+00  0.0000000000000D+00  0.0000000000000D+00
255  2.5400000000000D+00  0.0000000000000D+00  0.0000000000000D+00
256  2.5500000000000D+00  0.0000000000000D+00  0.0000000000000D+00
257  2.5600000000000D+00  0.0000000000000D+00  0.0000000000000D+00
258  2.5700000000000D+00  0.0000000000000D+00  0.0000000000000D+00
259  2.5800000000000D+00  0.0000000000000D+00  0.0000000000000D+00
260  2.5900000000000D+00  0.0000000000000D+00  0.0000000000000D+00
261  2.6000000000000D+00  0.0000000000000D+00  0.0000000000000D+00
262  2.6100000000000D+00  0.0000000000000D+00  0.0000000000000D+00
263  2.6200000000000D+00  0.0000000000000D+00  0.0000000000000D+00
264  2.6300000000000D+00  0.0000000000000D+00  0.0000000000000D+00
265  2.6400000000000D+00  0.0000000000000D+00  0.0000000000000D+00
266  2.6500000000000D+00  0.0000000000000D+00  0.0000000000000D+00
267  2.6600000000000D+00  0.0000000000000D+00  0.0000000000000D+00
268  2.6700000000000D+00  0.0000000000000D+00  0.0000000000000D+00
269  2.6800000000000D+00  0.0000000000000D+00  0.0000000000000D+00
270  2.6900000000000D+00  0.0000000000000D+00  0.0000000000000D+00
271  2.7000000000000D+00  0.0000000000000D+00  0.0000000000000D+00
272  2.7100000000000D+00  0.0000000000000D+00  0.0000000000000D+00
273  2.7200000000000D+00  0.0000000000000D+00  0.0000000000000D+00
274  2.7300000000000D+00  0.0000000000000D+00  0.0000000000000D+00
275  2.7400000000000D+00  0.0000000000000D+00  0.0000000000000D+00
276  2.7500000000000D+00  0.0000000000000D+00  0.0000000000000D+00
277  2.7600000000000D+00  0.0000000000000D+00  0.0000000000000D+00
278  2.7700000000000D+00  0.0000000000000D+00  0.0000000000000D+00
279  2.7800000000000D+00  0.0000000000000D+00  0.0000000000000D+00
280  2.7900000000000D+00  0.0000000000000D+00  0.0000000000000D+00
281  2.8000000000000D+00  0.0000000000000D+00  0.0000000000000D+00
282  2.8100000000000D+00  0.0000000000000D+00  0.0000000000000D+00
283  2.8200000000000D+00  0.0000000000000D+00  0.0000000000000D+00
284  2.8300000000000D+00  0.0000000000000D+00  0.0000000000000D+00
285  2.8400000000000D+00  0.0000000000000D+00  0.0000000000000D+00
286  2.8500000000000D+00  0.0000000000000D+00  0.0000000000000D+00
287  2.8600000000000D+00  0.0000000000000D+00  0.0000000000000D+00
288  2.8700000000000D+00  0.0000000000000D+00  0.0000000000000D+00
289  2.8800000000000D+00  0.0000000000000D+00  0.0000000000000D+00
290  2.8900000000000D+00  0.0000000000000D+00  0.0000000000000D+00
291  2.9000000000000D+00  0.0000000000000D+00  0.0000000000000D+00
292  2.9100000000000D+00  0.0000000000000D+00  0.0000000000000D+00
293  2.9200000000000D+00  0.0000000000000D+00  0.0000000000000D+00
294  2.9300000000000D+00  0.0000000000000D+00  0.0000000000000D+00
295  2.9400000000000D+00  0.0000000000000D+00  0.0000000000000D+00
296  2.9500000000000D+00  0.0000000000000D+00  0.0000000000000D+00
297  2.9600000000000D+00  0.0000000000000D+00  0.0000000000000D+00
298  2.9700000000000D+00  0.0000000000000D+00  0.0000000000000D+00
299  2.9800000000000D+00  0.0000000000000D+00  0.0000000000000D+00
300  2.9900000000000D+00  0.0000000000000D+00  0.0000000000000D+00
301  3.0000000000000D+00  0.0000000000000D+00  0.0000000000000D+00
302  3.0100000000000D+00  0.0000000000000D+00  0.0000000000000D+00
303  3.0200000000000D+00  0.0000000000000D+00  0.0000000000000D+00
304  3.0300000000000D+00  0.0000000000000D+00  0.0000000000000D+00
305  3.0400000000000D+00  0.0000000000000D+00  0.0000000000000D+00
306  3.0500000000000D+00  0.0000000000000D+00  0.0000000000000D+00
307  3.0600000000000D+00  0.0000000000000D+00  0.0000000000000D+00
308  3.0700000000000D+00  0.0000000000000D+00  0.0000000000000D+00
309  3.0800000000000D+00  0.0000000000000D+00  0.0000000000000D+00
310  3.0900000000000D+00  0.0000000000000D+00  0.0000000000000D+00
311  3.1000000000000D+00  0.0000000000000D+00  0.0000000000000D+00
312  3.1100000000000D+00  0.0000000000000D+00  0.0000000000000D+00
313  3.1200000000000D+00  0.0000000000000D+00  0.0000000000000D+00
314  3.1300000000000D+00  0.0000000000000D+00  0.0000000000000D+00
315  3.1400000000000D+00  0.0000000000000D+00  0.0000000000000D+00
316  3.1500000000000D+00  0.0000000000000D+00  0.0000000000000D+00
317  3.1600000000000D+00  0.0000000000000D+00  0.0000000000000D+00
318  3.1700000000000D+00  0.0000000000000D+00  0.0000000000000D+00
319  3.1800000000000D+00  0.0000000000000D+00  0.0000000000000D+00
320  3.1900000000000D+00  0.0000000000000D+00  0.0000000000000D+00
321  3.2000000000000D+00  0.0000000000000D+00  0.0000000000000D+00
322  3.2100000000000D+00  0.0000000000000D+00  0.0000000000000D+00
323  3.2200000000000D+00  0.0000000000000D+00  0.0000000000000D+00
324  3.2300000000000D+00  0.0000000000000D+00  0.0000000000000D+00
325  3.2400000000000D+00  0.0000000000000D+00  0.0000000000000D+00
326  3.2500000000000D+00  0.0000000000000D+00  0.0000000000000D+00
327  3.2600000000000D+00  0.0000000000000D+00  0.0000000000000D+00
328  3.2700000000000D+00  0.0000000000000D+00  0.0000000000000D+00
329  3.2800000000000D+00  0.0000000000000D+00  0.0000000000000D+00
330  3.2900000000000D+00  0.0000000000000D+00  0.0000000000000D+00
331  3.3000000000000D+00  0.0000000000000D+00  0.0000000000000D+00
332  3.3100000000000D+00  0.0000000000000D+00  0.0000000000000D+00
333  3.3200000000000D+00  0.0000000000000D+00  0.0000000000000D+00
334  3.3300000000000D+00  0.0000000000000D+00  0.0000000000000D+00
335  3.3400000000000D+00  0.0000000000000D+00  0.0000000000000D+00
336  3.3500000000000D+00  0.0000000000000D+00  0.0000000000000D+00
337  3.3600000000000D+00  0.0000000000000D+00  0.0000000000000D+00
338  3.3700000000000D+00  0.0000000000000D+00  0.0000000000000D+00
339  3.3800000000000D+00  0.0000000000000D+00  0.0000000000000D+00
340  3.3900000000000D+00  0.0000000000000D+00  0.0000000000000D+00
341  3.4000000000000D+00  0.0000000000000D+00  0.0000000000000D+00
342  3.4100000000000D+00  0.0000000000000D+00  0.0000000000000D+00
343  3.4200000000000D+00  0.0000000000000D+00  0.0000000000000D+00
344  3.4300000000000D+00  0.0000000000000D+00  0.0000000000000D+00
345  3.4400000000000D+00  0.0000000000000D+00  0.0000000000000D+00
346  3.4500000000000D+00  0.0000000000000D+00  0.0000000000000D+00
347  3.4600000000000D+00  0.0000000000000D+00  0.0000000000000D+00
348  3.4700000000000D+00  0.0000000000000D+00  0.0000000000000D+00
349  3.4800000000000D+00  0.0000000000000D+00  0.0000000000000D+00
350  3.4900000000000D+00  0.0000000000000D+00  0.0000000000000D+00
351  3.5000000000000D+00  0.0000000000000D+00  0.0000000000000D+00
352  3.5100000000000D+00  0.0000000000000D+00  0.0000000000000D+00
353  3.5200000000000D+00  0.0000000000000D+00  0.0000000000000D+00
354  3.5300000000000D+00  0.0000000000000D+00  0.0000000000000D+00
355  3.5400000000000D+00  0.0000000000000D+00  0.0000000000000D+00
356  3.5500000000000D+00  0.0000000000000D+00  0.0000000000000D+00
357  3.5600000000000D+00  0.0000000000000D+00  0.0000000000000D+00
358  3.5700000000000D+00  0.0000000000000D+00  0.0000000000000D+00
359  3.5800000000000D+00  0.0000000000000D+00  0.0000000000000D+00
360  3.5900000000000D+00  0.0000000000000D+00  0.0000000000000D+00
361  3.6000000000000D+00  0.0000000000000D+00  0.0000000000000D+00
362  3.6100000000000D+00  0.0000000000000D+00  0.0000000000000D+00
363  3.6200000000000D+00  0.0000000000000D+00  0.0000000000000D+00
364  3.6300000000000D+00  0.0000000000000D+00  0.0000000000000D+00
365  3.6400000000000D+00  0.0000000000000D+00  0.0000000000000D+00
366  3.6500000000000D+00  0.0000000000000D+00  0.0000000000000D+00
367  3.6600000000000D+00  0.0000000000000D+00  0.0000000000000D+00
368  3.6700000000000D+00  0.0000000000000D+00  0.0000000000000D+00
369  3.6800000000000D+00  0.0000000000000D+00  0.0000000000000D+00
370  3.6900000000000D+00  0.0000000000000D+00  0.0000000000000D+00
371  3.7000000000000D+00  0.0000000000000D+00  0.0000000000000D+00
372  3.7100000000000D+00  0.0000000000000D+00  0.0000000000000D+00
373  3.7200000000000D+00  0.0000000000000D+00  0.0000000000000D+00
374  3.7300000000000D+00  0.0000000000000D+00  0.0000000000000D+00
375  3.7400000000000D+00  0.0000000000000D+00  0.0000000000000D+00
376  3.7500000000000D+00  0.0000000000000D+00  0.0000000000000D+00
377  3.7600000000000D+00  0.0000000000000D+00  0.0000000000000D+00
378  3.7700000000000D+00  0.0000000000000D+00  0.0000000000000D+00
379  3.7800000000000D+00  0.0000000000000D+00  0.0000000000000D+00
380  3.7900000000000D+00  0.0000000000000D+00  0.0000000000000D+00
381  3.8000000000000D+00  0.0000000000000D+00  0.0000000000000D+00
382  3.8100000000000D+00  0.0000000000000D+00  0.0000000000000D+00
383  3.8200000000000D+00  0.0000000000000D+00  0.0000000000000D+00
384  3.8300000000000D+00  0.0000000000000D+00  0.0000000000000D+00
385  3.8400000000000D+00  0.0000000000000D+00  0.0000000000000D+00
386  3.8500000000000D+00  0.0000000000000D+00  0.0000000000000D+00
387  3.8600000000000D+00  0.0000000000000D+00  0.0000000000000D+00
388  3.8700000000000D+00  0.0000000000000D+00  0.0000000000000D+00
389  3.8800000000000D+00  0.0000000000000D+00  0.0000000000000D+00
390  3.8900000000000D+00  0.0000000000000D+00  0.0000000000000D+00
391  3.9000000000000D+00  0.0000000000000D+00  0.0000000000000D+00
392  3.9100000000000D+00  0.0000000000000D+00  0.0000000000000D+00
393  3.9200000000000D+00  0.0000000000000D+00  0.0000000000000D+00
394  3.9300000000000D+00  0.0000000000000D+00  0.0000000000000D+00
395  3.9400000000000D+00  0.0000000000000D+00  0.0000000000000D+00
396  3.9500000000000D+00  0.0000000000000D+00  0.0000000000000D+00
397  3.9600000000000D+00  0.0000000000000D+00  0.0000000000000D+00
398  3.9700000000000D+00  0.0000000000000D+00  0.0000000000000D+00
399  3.9800000000000D+00  0.0000000000000D+00  0.0000000000000D+00
400  3.9900000000000D+00  0.0000000000000D+00  0.0000000000000D+00
401  4.0000000000000D+00  0.0000000000000D+00  0.0000000000000D+00
402  4.0100000000000D+00  0.0000000000000D+00  0.0000000000000D+00
403  4.0200000000000D+00  0.0000000000000D+00  0.0000000000000D+00
404  4.0300000000000D+00  0.0000000000000D+00  0.0000000000000D+00
405  4.0400000000000D+00  0.0000000000000D+00  0.0000000000000D+00
406  4.0500000000000D+00  0.0000000000000D+00  0.0000000000000D+00
407  4.0600000000000D+00  0.0000000000000D+00  0.0000000000000D+00
408  4.0700000000000D+00  0.0000000000000D+00  0.0000000000000D+00
409  4.0800000000000D+00  0.0000000000000D+00  0.0000000000000D+00
410  4.0900000000000D+00  0.0000000000000D+00  0.0000000000000D+00
411  4.1000000000000D+00  0.0000000000000D+00  0.0000000000000D+00
412  4.1100000000000D+00  0.0000000000000D+00  0.0000000000000D+00
413  4.1200000000000D+00  0.0000000000000D+00  0.0000000000000D+00
414  4.1300000000000D+00  0.0000000000000D+00  0.0000000000000D+00
415  4.1400000000000D+00  0.0000000000000D+00  0.0000000000000D+00
416  4.1500000000000D+00  0.0000000000000D+00  0.0000000000000D+00
417  4.1600000000000D+00  0.0000000000000D+00  0.0000000000000D+00
418  4.1700000000000D+00  0.0000000000000D+00  0.0000000000000D+00
419  4.1800000000000D+00  0.0000000000000D+00  0.0000000000000D+00
420  4.1900000000000D+00  0.0000000000000D+00  0.0000000000000D+00
421  4.2000000000000D+00  0.0000000000000D+00  0.0000000000000D+00
422  4.2100000000000D+00  0.0000000000000D+00  0.0000000000000D+00
423  4.2200000000000D+00  0.0000000000000D+00  0.0000000000000D+00
424  4.2300000000000D+00  0.0000000000000D+00  0.0000000000000D+00
425  4.2400000000000D+00  0.0000000000000D+00  0.0000000000000D+00
426  4.2500000000000D+00  0.0000000000000D+00  0.0000000000000D+00
427  4.2600000000000D+00  0.0000000000000D+00  0.0000000000000D+00
428  4.2700000000000D+00  0.0000000000000D+00  0.0000000000000D+00
429  4.2800000000000D+00  0.0000000000000D+00  0.0000000000000D+00
430  4.2900000000000D+00  0.0000000000000D+00  0.0000000000000D+00
431  4.3000000000000D+00  0.0000000000000D+00  0.0000000000000D+00
432  4.3100000000000D+00  0.0000000000000D+00  0.0000000000000D+00
433  4.3200000000000D+00  0.0000000000000D+00  0.0000000000000D+00
434  4.3300000000000D+00  0.0000000000000D+00  0.0000000000000D+00
435  4.3400000000000D+00  0.0000000000000D+00  0.0000000000000D+00
436  4.3500000000000D+00  0.0000000000000D+00  0.0000000000000D+00
437  4.3600000000000D+00  0.0000000000000D+00  0.0000000000000D+00
438  4.3700000000000D+00  0.0000000000000D+00  0.0000000000000D+00
439  4.3800000000000D+00  0.0000000000000D+00  0.0000000000000D+00
440  4.3900000000000D+00  0.0000000000000D+00  0.0000000000000D+00
441  4.4000000000000D+00  0.0000000000000D+00  0.0000000000000D+00
442  4.4100000000000D+00  0.0000000000000D+00  0.0000000000000D+00
443  4.4200000000000D+00  0.0000000000000D+00  0.0000000000000D+00