Ne    ONCVPSP-3.3.0  r_core=   1.31204   1.51396
10.0000      8.0000      180503    zatom,zion,pspd
8 -116133   1     4   400     0    pspcod,pspxc,lmax,lloc,mmax,r2well
3.99000000  0.00000000  0.00000000    rchrg fchrg qchrg
2     2     0     0    nproj
3     1           extension_switch
3     0     0    nprojso
0                        -4.9024609575490D-01  2.6932970203071D+00
1  0.0000000000000D+00  2.4027312084396D-10  4.5659331870951D-10
2  1.0000000000000D-02  1.4542289835828D-02  9.8868536083584D-02
3  2.0000000000000D-02  2.9154507868486D-02  1.9741744813415D-01
4  3.0000000000000D-02  4.3905948038734D-02  2.9532785873942D-01
5  4.0000000000000D-02  5.8864641683657D-02  3.9228238816753D-01
6  5.0000000000000D-02  7.4096740944251D-02  4.8796591418633D-01
7  6.0000000000000D-02  8.9665919652105D-02  5.8206634472746D-01
8  7.0000000000000D-02  1.0563279723651D-01  6.7427540713239D-01
9  8.0000000000000D-02  1.2205439095312D-01  7.6428945726065D-01
10  9.0000000000000D-02  1.3898360143978D-01  8.5181031118272D-01
11  1.0000000000000D-01  1.5646873625822D-01  9.3654610152866D-01
12  1.1000000000000D-01  1.7455307568461D-01  1.0182121598290D+00
13  1.2000000000000D-01  1.9327448457341D-01  1.0965319253771D+00
14  1.3000000000000D-01  2.1266507364085D-01  1.1712378802736D+00
15  1.4000000000000D-01  2.3275091300281D-01  1.2420725094004D+00
16  1.5000000000000D-01  2.5355180026240D-01  1.3087892831199D+00
17  1.6000000000000D-01  2.7508108488047D-01  1.3711536595315D+00
18  1.7000000000000D-01  2.9734554998494D-01  1.4289441021423D+00
19  1.8000000000000D-01  3.2034535218692D-01  1.4819531078528D+00
20  1.9000000000000D-01  3.4407401938107D-01  1.5299882392238D+00
21  2.0000000000000D-01  3.6851850592021D-01  1.5728731541009D+00
22  2.1000000000000D-01  3.9365930397600D-01  1.6104486248411D+00
23  2.2000000000000D-01  4.1947060933573D-01  1.6425735386231D+00
24  2.3000000000000D-01  4.4592053934523D-01  1.6691258696495D+00
25  2.4000000000000D-01  4.7297140019570D-01  1.6900036134706D+00
26  2.5000000000000D-01  5.0058000027391D-01  1.7051256731925D+00
27  2.6000000000000D-01  5.2869800585502D-01  1.7144326869865D+00
28  2.7000000000000D-01  5.5727233502076D-01  1.7178877860994D+00
29  2.8000000000000D-01  5.8624558533692D-01  1.7154772724849D+00
30  2.9000000000000D-01  6.1555649052616D-01  1.7072112052419D+00
31  3.0000000000000D-01  6.4514040112923D-01  1.6931238852528D+00
32  3.1000000000000D-01  6.7492978396157D-01  1.6732742277803D+00
33  3.2000000000000D-01  7.0485473504471D-01  1.6477460132886D+00
34  3.3000000000000D-01  7.3484350062499D-01  1.6166480074160D+00
35  3.4000000000000D-01  7.6482300088514D-01  1.5801139418305D+00
36  3.5000000000000D-01  7.9471935100821D-01  1.5383023486433D+00
37  3.6000000000000D-01  8.2445837436667D-01  1.4913962421339D+00
38  3.7000000000000D-01  8.5396610278074D-01  1.4396026427372D+00
39  3.8000000000000D-01  8.8316925901738D-01  1.3831519395594D+00
40  3.9000000000000D-01  9.1199571698130D-01  1.3222970890991D+00
41  4.0000000000000D-01  9.4037493537961D-01  1.2573126493493D+00
42  4.1000000000000D-01  9.6823836101648D-01  1.1884936500241D+00
43  4.2000000000000D-01  9.9551979829115D-01  1.1161543012768D+00
44  4.3000000000000D-01  1.0221557419247D+00  1.0406265449337D+00
45  4.4000000000000D-01  1.0480856704244D+00  9.6225845394364D-01
46  4.5000000000000D-01  1.0732522983015D+00  8.8141248741693D-01
47  4.6000000000000D-01  1.0976017855872D+00  7.9846361028061D-01
48  4.7000000000000D-01  1.1210839037278D+00  7.1379728818692D-01
49  4.8000000000000D-01  1.1436521574878D+00  6.2780736986324D-01
50  4.9000000000000D-01  1.1652638630346D+00  5.4089387056100D-01
51  5.0000000000000D-01  1.1858801829149D+00  4.5346067163209D-01
52  5.1000000000000D-01  1.2054661191593D+00  3.6591315251398D-01
53  5.2000000000000D-01  1.2239904662575D+00  2.7865577252371D-01
54  5.3000000000000D-01  1.2414257262244D+00  1.9208962082782D-01
55  5.4000000000000D-01  1.2577479884275D+00  1.0660995375860D-01
56  5.5000000000000D-01  1.2729367772581D+00  2.2603739270853D-02
57  5.6000000000000D-01  1.2869748710982D+00 -5.9552771231940D-02
58  5.7000000000000D-01  1.2998480963600D+00 -1.3949642323622D-01
59  5.8000000000000D-01  1.3115451006498D+00 -2.1687947112555D-01
60  5.9000000000000D-01  1.3220571093291D+00 -2.9137180154079D-01
61  6.0000000000000D-01  1.3313776699112D+00 -3.6266304816852D-01
62  6.1000000000000D-01  1.3395023888402D+00 -4.3046457864336D-01
63  6.2000000000000D-01  1.3464286652468D+00 -4.9451133506149D-01
64  6.3000000000000D-01  1.3521554262646D+00 -5.5456351063305D-01
65  6.4000000000000D-01  1.3566828684213D+00 -6.1040804621971D-01
66  6.5000000000000D-01  1.3600122094875D+00 -6.6185993191751D-01
67  6.6000000000000D-01  1.3621454549814D+00 -7.0876330043956D-01
68  6.7000000000000D-01  1.3630851832843D+00 -7.5099230080520D-01
69  6.8000000000000D-01  1.3628343530316D+00 -7.8845174274491D-01
70  6.9000000000000D-01  1.3613961360984D+00 -8.2107750426810D-01
71  7.0000000000000D-01  1.3587737791154D+00 -8.4883669698251D-01
72  7.1000000000000D-01  1.3549704960256D+00 -8.7172758598369D-01
73  7.2000000000000D-01  1.3499893937327D+00 -8.8977926343553D-01
74  7.3000000000000D-01  1.3438334324025D+00 -9.0305107730469D-01
75  7.4000000000000D-01  1.3365054214704D+00 -9.1163181906913D-01
76  7.5000000000000D-01  1.3280080518823D+00 -9.1563867657337D-01
77  7.6000000000000D-01  1.3183439645563D+00 -9.1521596052701D-01
78  7.7000000000000D-01  1.3075158545200D+00 -9.1053361539429D-01
79  7.8000000000000D-01  1.2955266096388D+00 -9.0178552761368D-01
80  7.9000000000000D-01  1.2823794823283D+00 -8.8918764614789D-01
81  8.0000000000000D-01  1.2680782921404D+00 -8.7297593230610D-01
82  8.1000000000000D-01  1.2526276566261D+00 -8.5340415756472D-01
83  8.2000000000000D-01  1.2360332474299D+00 -8.3074156972190D-01
84  8.3000000000000D-01  1.2183020681539D+00 -8.0527044913509D-01
85  8.4000000000000D-01  1.1994427501554D+00 -7.7728357799297D-01
86  8.5000000000000D-01  1.1794658621150D+00 -7.4708164654660D-01
87  8.6000000000000D-01  1.1583842289372D+00 -7.1497062095786D-01
88  8.7000000000000D-01  1.1362132553222D+00 -6.8125909790433D-01
89  8.8000000000000D-01  1.1129712491887D+00 -6.4625567130207D-01
90  8.9000000000000D-01  1.0886797400213D+00 -6.1026633646464D-01
91  9.0000000000000D-01  1.0633637871811D+00 -5.7359195670807D-01
92  9.1000000000000D-01  1.0370522732400D+00 -5.3652581683553D-01
93  9.2000000000000D-01  1.0097781774876D+00 -4.9935128709823D-01
94  9.3000000000000D-01  9.8157882491322D-01 -4.6233962013544D-01
95  9.4000000000000D-01  9.5249610617718D-01 -4.2574790205695D-01
96  9.5000000000000D-01  9.2257666435998D-01 -3.8981717726124D-01
97  9.6000000000000D-01  8.9187204461133D-01 -3.5477076477529D-01
98  9.7000000000000D-01  8.6043880320105D-01 -3.2081278193472D-01
99  9.8000000000000D-01  8.2833857290993D-01 -2.8812688903416D-01
100  9.9000000000000D-01  7.9563808217991D-01 -2.5687526623494D-01
101  1.0000000000000D+00  7.6240912595655D-01 -2.2719783156783D-01
102  1.0100000000000D+00  7.2872848670972D-01 -1.9921170628259D-01
103  1.0200000000000D+00  6.9467780469341D-01 -1.7301093114992D-01
104  1.0300000000000D+00  6.6034339711535D-01 -1.4866643455719D-01
105  1.0400000000000D+00  6.2581602647363D-01 -1.2622625061222D-01
106  1.0500000000000D+00  5.9119061895316D-01 -1.0571598265344D-01
107  1.0600000000000D+00  5.5656593438959D-01 -8.7139504872636D-02
108  1.0700000000000D+00  5.2204418990140D-01 -7.0479892184343D-02
109  1.0800000000000D+00  4.8773063989845D-01 -5.5700565863257D-02
110  1.0900000000000D+00  4.5373311571875D-01 -4.2746640155734D-02
111  1.1000000000000D+00  4.2016152868351D-01 -3.1546452793537D-02
112  1.1100000000000D+00  3.8712734088658D-01 -2.2013260138515D-02
113  1.1200000000000D+00  3.5474300845318D-01 -1.4047075946076D-02
114  1.1300000000000D+00  3.2312140243999D-01 -7.5366309443330D-03
115  1.1400000000000D+00  2.9237521283928D-01 -2.3614292360098D-03
116  1.1500000000000D+00  2.6261634153291D-01  1.6061240022841D-03
117  1.1600000000000D+00  2.3395529019974D-01  4.4985496600237D-03
118  1.1700000000000D+00  2.0650054935791D-01  6.4511034783076D-03
119  1.1800000000000D+00  1.8035799483120D-01  7.5995936897716D-03
120  1.1900000000000D+00  1.5563029796062D-01  8.0782347581102D-03
121  1.2000000000000D+00  1.3241635578783D-01  8.0175640120048D-03
122  1.2100000000000D+00  1.1081074737542D-01  7.5424476534477D-03
123  1.2200000000000D+00  9.0903222242414D-02  6.7702017627069D-03
124  1.2300000000000D+00  7.2778226570850D-02  5.8088525145662D-03
125  1.2400000000000D+00  5.6514472543398D-02  4.7555585432156D-03
126  1.2500000000000D+00  4.2184555942141D-02  3.6952173855498D-03
127  1.2600000000000D+00  2.9854626426295D-02  2.6992748993898D-03
128  1.2700000000000D+00  1.9588286956786D-02  1.8252337668395D-03
129  1.2800000000000D+00  1.1427140830118D-02  1.1137111466082D-03
130  1.2900000000000D+00  5.3874383149469D-03  5.8642168866206D-04
131  1.3000000000000D+00  1.6818733436970D-03  2.8200340358621D-04
132  1.3100000000000D+00  1.1959266984729D-04  1.5579124484752D-04
133  1.3200000000000D+00 -1.3121063085268D-04  5.9494795725469D-05
134  1.3300000000000D+00  2.2277288325263D-05 -6.6475057572455D-06
135  1.3400000000000D+00  2.5845696540429D-05 -6.2431824807382D-06
136  1.3500000000000D+00 -7.5914526405475D-06  2.6349987049305D-06
137  1.3600000000000D+00  7.0851031872134D-10 -1.4429191334035D-08
138  1.3700000000000D+00  1.7349425423389D-08 -3.5333032188076D-07
139  1.3800000000000D+00  0.0000000000000D+00  0.0000000000000D+00
140  1.3900000000000D+00  0.0000000000000D+00  0.0000000000000D+00
141  1.4000000000000D+00  0.0000000000000D+00  0.0000000000000D+00
142  1.4100000000000D+00  0.0000000000000D+00  0.0000000000000D+00
143  1.4200000000000D+00  0.0000000000000D+00  0.0000000000000D+00
144  1.4300000000000D+00  0.0000000000000D+00  0.0000000000000D+00
145  1.4400000000000D+00  0.0000000000000D+00  0.0000000000000D+00
146  1.4500000000000D+00  0.0000000000000D+00  0.0000000000000D+00
147  1.4600000000000D+00  0.0000000000000D+00  0.0000000000000D+00
148  1.4700000000000D+00  0.0000000000000D+00  0.0000000000000D+00
149  1.4800000000000D+00  0.0000000000000D+00  0.0000000000000D+00
150  1.4900000000000D+00  0.0000000000000D+00  0.0000000000000D+00
151  1.5000000000000D+00  0.0000000000000D+00  0.0000000000000D+00
152  1.5100000000000D+00  0.0000000000000D+00  0.0000000000000D+00
153  1.5200000000000D+00  0.0000000000000D+00  0.0000000000000D+00
154  1.5300000000000D+00  0.0000000000000D+00  0.0000000000000D+00
155  1.5400000000000D+00  0.0000000000000D+00  0.0000000000000D+00
156  1.5500000000000D+00  0.0000000000000D+00  0.0000000000000D+00
157  1.5600000000000D+00  0.0000000000000D+00  0.0000000000000D+00
158  1.5700000000000D+00  0.0000000000000D+00  0.0000000000000D+00
159  1.5800000000000D+00  0.0000000000000D+00  0.0000000000000D+00
160  1.5900000000000D+00  0.0000000000000D+00  0.0000000000000D+00
161  1.6000000000000D+00  0.0000000000000D+00  0.0000000000000D+00
162  1.6100000000000D+00  0.0000000000000D+00  0.0000000000000D+00
163  1.6200000000000D+00  0.0000000000000D+00  0.0000000000000D+00
164  1.6300000000000D+00  0.0000000000000D+00  0.0000000000000D+00
165  1.6400000000000D+00  0.0000000000000D+00  0.0000000000000D+00
166  1.6500000000000D+00  0.0000000000000D+00  0.0000000000000D+00
167  1.6600000000000D+00  0.0000000000000D+00  0.0000000000000D+00
168  1.6700000000000D+00  0.0000000000000D+00  0.0000000000000D+00
169  1.6800000000000D+00  0.0000000000000D+00  0.0000000000000D+00
170  1.6900000000000D+00  0.0000000000000D+00  0.0000000000000D+00
171  1.7000000000000D+00  0.0000000000000D+00  0.0000000000000D+00
172  1.7100000000000D+00  0.0000000000000D+00  0.0000000000000D+00
173  1.7200000000000D+00  0.0000000000000D+00  0.0000000000000D+00
174  1.7300000000000D+00  0.0000000000000D+00  0.0000000000000D+00
175  1.7400000000000D+00  0.0000000000000D+00  0.0000000000000D+00
176  1.7500000000000D+00  0.0000000000000D+00  0.0000000000000D+00
177  1.7600000000000D+00  0.0000000000000D+00  0.0000000000000D+00
178  1.7700000000000D+00  0.0000000000000D+00  0.0000000000000D+00
179  1.7800000000000D+00  0.0000000000000D+00  0.0000000000000D+00
180  1.7900000000000D+00  0.0000000000000D+00  0.0000000000000D+00
181  1.8000000000000D+00  0.0000000000000D+00  0.0000000000000D+00
182  1.8100000000000D+00  0.0000000000000D+00  0.0000000000000D+00
183  1.8200000000000D+00  0.0000000000000D+00  0.0000000000000D+00
184  1.8300000000000D+00  0.0000000000000D+00  0.0000000000000D+00
185  1.8400000000000D+00  0.0000000000000D+00  0.0000000000000D+00
186  1.8500000000000D+00  0.0000000000000D+00  0.0000000000000D+00
187  1.8600000000000D+00  0.0000000000000D+00  0.0000000000000D+00
188  1.8700000000000D+00  0.0000000000000D+00  0.0000000000000D+00
189  1.8800000000000D+00  0.0000000000000D+00  0.0000000000000D+00
190  1.8900000000000D+00  0.0000000000000D+00  0.0000000000000D+00
191  1.9000000000000D+00  0.0000000000000D+00  0.0000000000000D+00
192  1.9100000000000D+00  0.0000000000000D+00  0.0000000000000D+00
193  1.9200000000000D+00  0.0000000000000D+00  0.0000000000000D+00
194  1.9300000000000D+00  0.0000000000000D+00  0.0000000000000D+00
195  1.9400000000000D+00  0.0000000000000D+00  0.0000000000000D+00
196  1.9500000000000D+00  0.0000000000000D+00  0.0000000000000D+00
197  1.9600000000000D+00  0.0000000000000D+00  0.0000000000000D+00
198  1.9700000000000D+00  0.0000000000000D+00  0.0000000000000D+00
199  1.9800000000000D+00  0.0000000000000D+00  0.0000000000000D+00
200  1.9900000000000D+00  0.0000000000000D+00  0.0000000000000D+00
201  2.0000000000000D+00  0.0000000000000D+00  0.0000000000000D+00
202  2.0100000000000D+00  0.0000000000000D+00  0.0000000000000D+00
203  2.0200000000000D+00  0.0000000000000D+00  0.0000000000000D+00
204  2.0300000000000D+00  0.0000000000000D+00  0.0000000000000D+00
205  2.0400000000000D+00  0.0000000000000D+00  0.0000000000000D+00
206  2.0500000000000D+00  0.0000000000000D+00  0.0000000000000D+00
207  2.0600000000000D+00  0.0000000000000D+00  0.0000000000000D+00
208  2.0700000000000D+00  0.0000000000000D+00  0.0000000000000D+00
209  2.0800000000000D+00  0.0000000000000D+00  0.0000000000000D+00
210  2.0900000000000D+00  0.0000000000000D+00  0.0000000000000D+00
211  2.1000000000000D+00  0.0000000000000D+00  0.0000000000000D+00
212  2.1100000000000D+00  0.0000000000000D+00  0.0000000000000D+00
213  2.1200000000000D+00  0.0000000000000D+00  0.0000000000000D+00
214  2.1300000000000D+00  0.0000000000000D+00  0.0000000000000D+00
215  2.1400000000000D+00  0.0000000000000D+00  0.0000000000000D+00
216  2.1500000000000D+00  0.0000000000000D+00  0.0000000000000D+00
217  2.1600000000000D+00  0.0000000000000D+00  0.0000000000000D+00
218  2.1700000000000D+00  0.0000000000000D+00  0.0000000000000D+00
219  2.1800000000000D+00  0.0000000000000D+00  0.0000000000000D+00
220  2.1900000000000D+00  0.0000000000000D+00  0.0000000000000D+00
221  2.2000000000000D+00  0.0000000000000D+00  0.0000000000000D+00
222  2.2100000000000D+00  0.0000000000000D+00  0.0000000000000D+00
223  2.2200000000000D+00  0.0000000000000D+00  0.0000000000000D+00
224  2.2300000000000D+00  0.0000000000000D+00  0.0000000000000D+00
225  2.2400000000000D+00  0.0000000000000D+00  0.0000000000000D+00
226  2.2500000000000D+00  0.0000000000000D+00  0.0000000000000D+00
227  2.2600000000000D+00  0.0000000000000D+00  0.0000000000000D+00
228  2.2700000000000D+00  0.0000000000000D+00  0.0000000000000D+00
229  2.2800000000000D+00  0.0000000000000D+00  0.0000000000000D+00
230  2.2900000000000D+00  0.0000000000000D+00  0.0000000000000D+00
231  2.3000000000000D+00  0.0000000000000D+00  0.0000000000000D+00
232  2.3100000000000D+00  0.0000000000000D+00  0.0000000000000D+00
233  2.3200000000000D+00  0.0000000000000D+00  0.0000000000000D+00
234  2.3300000000000D+00  0.0000000000000D+00  0.0000000000000D+00
235  2.3400000000000D+00  0.0000000000000D+00  0.0000000000000D+00
236  2.3500000000000D+00  0.0000000000000D+00  0.0000000000000D+00
237  2.3600000000000D+00  0.0000000000000D+00  0.0000000000000D+00
238  2.3700000000000D+00  0.0000000000000D+00  0.0000000000000D+00
239  2.3800000000000D+00  0.0000000000000D+00  0.0000000000000D+00
240  2.3900000000000D+00  0.0000000000000D+00  0.0000000000000D+00
241  2.4000000000000D+00  0.0000000000000D+00  0.0000000000000D+00
242  2.4100000000000D+00  0.0000000000000D+00  0.0000000000000D+00
243  2.4200000000000D+00  0.0000000000000D+00  0.0000000000000D+00
244  2.4300000000000D+00  0.0000000000000D+00  0.0000000000000D+00
245  2.4400000000000D+00  0.0000000000000D+00  0.0000000000000D+00
246  2.4500000000000D+00  0.0000000000000D+00  0.0000000000000D+00
247  2.4600000000000D+00  0.0000000000000D+00  0.0000000000000D+00
248  2.4700000000000D+00  0.0000000000000D+00  0.0000000000000D+00
249  2.4800000000000D+00  0.0000000000000D+00  0.0000000000000D+00
250  2.4900000000000D+00  0.0000000000000D+00  0.0000000000000D+00
251  2.5000000000000D+00  0.0000000000000D+00  0.0000000000000D+00
252  2.5100000000000D+00  0.0000000000000D+00  0.0000000000000D+00
253  2.5200000000000D+00  0.0000000000000D+00  0.0000000000000D+00
254  2.5300000000000D+00  0.0000000000000D+00  0.0000000000000D+00
255  2.5400000000000D+00  0.0000000000000D+00  0.0000000000000D+00
256  2.5500000000000D+00  0.0000000000000D+00  0.0000000000000D+00
257  2.5600000000000D+00  0.0000000000000D+00  0.0000000000000D+00
258  2.5700000000000D+00  0.0000000000000D+00  0.0000000000000D+00
259  2.5800000000000D+00  0.0000000000000D+00  0.0000000000000D+00
260  2.5900000000000D+00  0.0000000000000D+00  0.0000000000000D+00
261  2.6000000000000D+00  0.0000000000000D+00  0.0000000000000D+00
262  2.6100000000000D+00  0.0000000000000D+00  0.0000000000000D+00
263  2.6200000000000D+00  0.0000000000000D+00  0.0000000000000D+00
264  2.6300000000000D+00  0.0000000000000D+00  0.0000000000000D+00
265  2.6400000000000D+00  0.0000000000000D+00  0.0000000000000D+00
266  2.6500000000000D+00  0.0000000000000D+00  0.0000000000000D+00
267  2.6600000000000D+00  0.0000000000000D+00  0.0000000000000D+00
268  2.6700000000000D+00  0.0000000000000D+00  0.0000000000000D+00
269  2.6800000000000D+00  0.0000000000000D+00  0.0000000000000D+00
270  2.6900000000000D+00  0.0000000000000D+00  0.0000000000000D+00
271  2.7000000000000D+00  0.0000000000000D+00  0.0000000000000D+00
272  2.7100000000000D+00  0.0000000000000D+00  0.0000000000000D+00
273  2.7200000000000D+00  0.0000000000000D+00  0.0000000000000D+00
274  2.7300000000000D+00  0.0000000000000D+00  0.0000000000000D+00
275  2.7400000000000D+00  0.0000000000000D+00  0.0000000000000D+00
276  2.7500000000000D+00  0.0000000000000D+00  0.0000000000000D+00
277  2.7600000000000D+00  0.0000000000000D+00  0.0000000000000D+00
278  2.7700000000000D+00  0.0000000000000D+00  0.0000000000000D+00
279  2.7800000000000D+00  0.0000000000000D+00  0.0000000000000D+00
280  2.7900000000000D+00  0.0000000000000D+00  0.0000000000000D+00
281  2.8000000000000D+00  0.0000000000000D+00  0.0000000000000D+00
282  2.8100000000000D+00  0.0000000000000D+00  0.0000000000000D+00
283  2.8200000000000D+00  0.0000000000000D+00  0.0000000000000D+00
284  2.8300000000000D+00  0.0000000000000D+00  0.0000000000000D+00
285  2.8400000000000D+00  0.0000000000000D+00  0.0000000000000D+00
286  2.8500000000000D+00  0.0000000000000D+00  0.0000000000000D+00
287  2.8600000000000D+00  0.0000000000000D+00  0.0000000000000D+00
288  2.8700000000000D+00  0.0000000000000D+00  0.0000000000000D+00
289  2.8800000000000D+00  0.0000000000000D+00  0.0000000000000D+00
290  2.8900000000000D+00  0.0000000000000D+00  0.0000000000000D+00
291  2.9000000000000D+00  0.0000000000000D+00  0.0000000000000D+00
292  2.9100000000000D+00  0.0000000000000D+00  0.0000000000000D+00
293  2.9200000000000D+00  0.0000000000000D+00  0.0000000000000D+00
294  2.9300000000000D+00  0.0000000000000D+00  0.0000000000000D+00
295  2.9400000000000D+00  0.0000000000000D+00  0.0000000000000D+00
296  2.9500000000000D+00  0.0000000000000D+00  0.0000000000000D+00
297  2.9600000000000D+00  0.0000000000000D+00  0.0000000000000D+00
298  2.9700000000000D+00  0.0000000000000D+00  0.0000000000000D+00
299  2.9800000000000D+00  0.0000000000000D+00  0.0000000000000D+00
300  2.9900000000000D+00  0.0000000000000D+00  0.0000000000000D+00
301  3.0000000000000D+00  0.0000000000000D+00  0.0000000000000D+00
302  3.0100000000000D+00  0.0000000000000D+00  0.0000000000000D+00
303  3.0200000000000D+00  0.0000000000000D+00  0.0000000000000D+00
304  3.0300000000000D+00  0.0000000000000D+00  0.0000000000000D+00
305  3.0400000000000D+00  0.0000000000000D+00  0.0000000000000D+00
306  3.0500000000000D+00  0.0000000000000D+00  0.0000000000000D+00
307  3.0600000000000D+00  0.0000000000000D+00  0.0000000000000D+00
308  3.0700000000000D+00  0.0000000000000D+00  0.0000000000000D+00
309  3.0800000000000D+00  0.0000000000000D+00  0.0000000000000D+00
310  3.0900000000000D+00  0.0000000000000D+00  0.0000000000000D+00
311  3.1000000000000D+00  0.0000000000000D+00  0.0000000000000D+00
312  3.1100000000000D+00  0.0000000000000D+00  0.0000000000000D+00
313  3.1200000000000D+00  0.0000000000000D+00  0.0000000000000D+00
314  3.1300000000000D+00  0.0000000000000D+00  0.0000000000000D+00
315  3.1400000000000D+00  0.0000000000000D+00  0.0000000000000D+00
316  3.1500000000000D+00  0.0000000000000D+00  0.0000000000000D+00
317  3.1600000000000D+00  0.0000000000000D+00  0.0000000000000D+00
318  3.1700000000000D+00  0.0000000000000D+00  0.0000000000000D+00
319  3.1800000000000D+00  0.0000000000000D+00  0.0000000000000D+00
320  3.1900000000000D+00  0.0000000000000D+00  0.0000000000000D+00
321  3.2000000000000D+00  0.0000000000000D+00  0.0000000000000D+00
322  3.2100000000000D+00  0.0000000000000D+00  0.0000000000000D+00
323  3.2200000000000D+00  0.0000000000000D+00  0.0000000000000D+00
324  3.2300000000000D+00  0.0000000000000D+00  0.0000000000000D+00
325  3.2400000000000D+00  0.0000000000000D+00  0.0000000000000D+00
326  3.2500000000000D+00  0.0000000000000D+00  0.0000000000000D+00
327  3.2600000000000D+00  0.0000000000000D+00  0.0000000000000D+00
328  3.2700000000000D+00  0.0000000000000D+00  0.0000000000000D+00
329  3.2800000000000D+00  0.0000000000000D+00  0.0000000000000D+00
330  3.2900000000000D+00  0.0000000000000D+00  0.0000000000000D+00
331  3.3000000000000D+00  0.0000000000000D+00  0.0000000000000D+00
332  3.3100000000000D+00  0.0000000000000D+00  0.0000000000000D+00
333  3.3200000000000D+00  0.0000000000000D+00  0.0000000000000D+00
334  3.3300000000000D+00  0.0000000000000D+00  0.0000000000000D+00
335  3.3400000000000D+00  0.0000000000000D+00  0.0000000000000D+00
336  3.3500000000000D+00  0.0000000000000D+00  0.0000000000000D+00
337  3.3600000000000D+00  0.0000000000000D+00  0.0000000000000D+00
338  3.3700000000000D+00  0.0000000000000D+00  0.0000000000000D+00
339  3.3800000000000D+00  0.0000000000000D+00  0.0000000000000D+00
340  3.3900000000000D+00  0.0000000000000D+00  0.0000000000000D+00
341  3.4000000000000D+00  0.0000000000000D+00  0.0000000000000D+00
342  3.4100000000000D+00  0.0000000000000D+00  0.0000000000000D+00
343  3.4200000000000D+00  0.0000000000000D+00  0.0000000000000D+00
344  3.4300000000000D+00  0.0000000000000D+00  0.0000000000000D+00
345  3.4400000000000D+00  0.0000000000000D+00  0.0000000000000D+00
346  3.4500000000000D+00  0.0000000000000D+00  0.0000000000000D+00
347  3.4600000000000D+00  0.0000000000000D+00  0.0000000000000D+00
348  3.4700000000000D+00  0.0000000000000D+00  0.0000000000000D+00
349  3.4800000000000D+00  0.0000000000000D+00  0.0000000000000D+00
350  3.4900000000000D+00  0.0000000000000D+00  0.0000000000000D+00
351  3.5000000000000D+00  0.0000000000000D+00  0.0000000000000D+00
352  3.5100000000000D+00  0.0000000000000D+00  0.0000000000000D+00
353  3.5200000000000D+00  0.0000000000000D+00  0.0000000000000D+00
354  3.5300000000000D+00  0.0000000000000D+00  0.0000000000000D+00
355  3.5400000000000D+00  0.0000000000000D+00  0.0000000000000D+00
356  3.5500000000000D+00  0.0000000000000D+00  0.0000000000000D+00
357  3.5600000000000D+00  0.0000000000000D+00  0.0000000000000D+00
358  3.5700000000000D+00  0.0000000000000D+00  0.0000000000000D+00
359  3.5800000000000D+00  0.0000000000000D+00  0.0000000000000D+00
360  3.5900000000000D+00  0.0000000000000D+00  0.0000000000000D+00
361  3.6000000000000D+00  0.0000000000000D+00  0.0000000000000D+00
362  3.6100000000000D+00  0.0000000000000D+00  0.0000000000000D+00
363  3.6200000000000D+00  0.0000000000000D+00  0.0000000000000D+00
364  3.6300000000000D+00  0.0000000000000D+00  0.0000000000000D+00
365  3.6400000000000D+00  0.0000000000000D+00  0.0000000000000D+00
366  3.6500000000000D+00  0.0000000000000D+00  0.0000000000000D+00
367  3.6600000000000D+00  0.0000000000000D+00  0.0000000000000D+00
368  3.6700000000000D+00  0.0000000000000D+00  0.0000000000000D+00
369  3.6800000000000D+00  0.0000000000000D+00  0.0000000000000D+00
370  3.6900000000000D+00  0.0000000000000D+00  0.0000000000000D+00
371  3.7000000000000D+00  0.0000000000000D+00  0.0000000000000D+00
372  3.7100000000000D+00  0.0000000000000D+00  0.0000000000000D+00
373  3.7200000000000D+00  0.0000000000000D+00  0.0000000000000D+00
374  3.7300000000000D+00  0.0000000000000D+00  0.0000000000000D+00
375  3.7400000000000D+00  0.0000000000000D+00  0.0000000000000D+00
376  3.7500000000000D+00  0.0000000000000D+00  0.0000000000000D+00
377  3.7600000000000D+00  0.0000000000000D+00  0.0000000000000D+00
378  3.7700000000000D+00  0.0000000000000D+00  0.0000000000000D+00
379  3.7800000000000D+00  0.0000000000000D+00  0.0000000000000D+00
380  3.7900000000000D+00  0.0000000000000D+00  0.0000000000000D+00
381  3.8000000000000D+00  0.0000000000000D+00  0.0000000000000D+00
382  3.8100000000000D+00  0.0000000000000D+00  0.0000000000000D+00
383  3.8200000000000D+00  0.0000000000000D+00  0.0000000000000D+00
384  3.8300000000000D+00  0.0000000000000D+00  0.0000000000000D+00
385  3.8400000000000D+00  0.0000000000000D+00  0.0000000000000D+00
386  3.8500000000000D+00  0.0000000000000D+00  0.0000000000000D+00
387  3.8600000000000D+00  0.0000000000000D+00  0.0000000000000D+00
388  3.8700000000000D+00  0.0000000000000D+00  0.0000000000000D+00
389  3.8800000000000D+00  0.0000000000000D+00  0.0000000000000D+00
390  3.8900000000000D+00  0.0000000000000D+00  0.0000000000000D+00
391  3.9000000000000D+00  0.0000000000000D+00  0.0000000000000D+00
392  3.9100000000000D+00  0.0000000000000D+00  0.0000000000000D+00
393  3.9200000000000D+00  0.0000000000000D+00  0.0000000000000D+00
394  3.9300000000000D+00  0.0000000000000D+00  0.0000000000000D+00
395  3.9400000000000D+00  0.0000000000000D+00  0.0000000000000D+00
396  3.9500000000000D+00  0.0000000000000D+00  0.0000000000000D+00
397  3.9600000000000D+00  0.0000000000000D+00  0.0000000000000D+00
398  3.9700000000000D+00  0.0000000000000D+00  0.0000000000000D+00
399  3.9800000000000D+00  0.0000000000000D+00  0.0000000000000D+00
400  3.9900000000000D+00  0.0000000000000D+00  0.0000000000000D+00
1                        -6.4508830992486D+00 -1.9682181674617D+00
1  0.0000000000000D+00 -2.1066384747748D-10  8.8487924626568D-10
2  1.0000000000000D-02  1.8730309199599D-03 -5.1290828703858D-04
3  2.0000000000000D-02  7.4846767657586D-03 -2.0490323823550D-03
4  3.0000000000000D-02  1.6812613917208D-02 -4.6005531326331D-03
5  4.0000000000000D-02  2.9819693543219D-02 -8.1543829296160D-03
6  5.0000000000000D-02  4.6454027854231D-02 -1.2692083924699D-02
7  6.0000000000000D-02  6.6649111741995D-02 -1.8189756990474D-02
8  7.0000000000000D-02  9.0323980668060D-02 -2.4617904829089D-02
9  8.0000000000000D-02  1.1738340587295D-01 -3.1941273512157D-02
10  9.0000000000000D-02  1.4771812816284D-01 -4.0118677558291D-02
11  1.0000000000000D-01  1.8120513168434D-01 -4.9102814399715D-02
12  1.1000000000000D-01  2.1770795921624D-01 -5.8840074747127D-02
13  1.2000000000000D-01  2.5707707058581D-01 -6.9270355921648D-02
14  1.3000000000000D-01  2.9915024585216D-01 -8.0326885674951D-02
15  1.4000000000000D-01  3.4375303488877D-01 -9.1936064355389D-02
16  1.5000000000000D-01  3.9069925493695D-01 -1.0401733349282D-01
17  1.6000000000000D-01  4.3979153759280D-01 -1.1648307896238D-01
18  1.7000000000000D-01  4.9082192652841D-01 -1.2923857684496D-01
19  1.8000000000000D-01  5.4357252703577D-01 -1.4218198992656D-01
20  1.9000000000000D-01  5.9781620821802D-01 -1.5520442247146D-01
21  2.0000000000000D-01  6.5331735833933D-01 -1.6819004046512D-01
22  2.1000000000000D-01  7.0983269348371D-01 -1.8101626395647D-01
23  2.2000000000000D-01  7.6711211926708D-01 -1.9355403744012D-01
24  2.3000000000000D-01  8.2489964489959D-01 -2.0566818341308D-01
25  2.4000000000000D-01  8.8293434841047D-01 -2.1721784332717D-01
26  2.5000000000000D-01  9.4095139133063D-01 -2.2805700914555D-01
27  2.6000000000000D-01  9.9868308058411D-01 -2.3803514761186D-01
28  2.7000000000000D-01  1.0558599747739D+00 -2.4699791816480D-01
29  2.8000000000000D-01  1.1122120314681D+00 -2.5478798419362D-01
30  2.9000000000000D-01  1.1674697915041D+00 -2.6124591604483D-01
31  3.0000000000000D-01  1.2213655957396D+00 -2.6621118287305D-01
32  3.1000000000000D-01  1.2736348290995D+00 -2.6952322909548D-01
33  3.2000000000000D-01  1.3240171861965D+00 -2.7102262987558D-01
34  3.3000000000000D-01  1.3722579522617D+00 -2.7055231874556D-01
35  3.4000000000000D-01  1.4181092926032D+00 -2.6795887919390D-01
36  3.5000000000000D-01  1.4613315433337D+00 -2.6309389081306D-01
37  3.6000000000000D-01  1.5016944956734D+00 -2.5581531943721D-01
38  3.7000000000000D-01  1.5389786657528D+00 -2.4598893961951D-01
39  3.8000000000000D-01  1.5729765415181D+00 -2.3348977681584D-01
40  3.9000000000000D-01  1.6034937980804D+00 -2.1820355577425D-01
41  4.0000000000000D-01  1.6303504726654D+00 -2.0002814088769D-01
42  4.1000000000000D-01  1.6533820902053D+00 -1.7887495366711D-01
43  4.2000000000000D-01  1.6724407305837D+00 -1.5467035204092D-01