O     ONCVPSP-3.3.0  r_core=   1.26150   1.35509   1.26150
8.0000      6.0000      180430    zatom,zion,pspd
8 -116133   2     4   600     0    pspcod,pspxc,lmax,lloc,mmax,r2well
5.99000000  4.00000000  0.00000000    rchrg fchrg qchrg
2     2     2     0    nproj
3     1           extension_switch
2     2     0    nprojso
0                         9.9339608865793D-01  7.2303488001298D+00
1  0.0000000000000D+00  1.8460763806516D-08 -7.2777959214676D-09
2  1.0000000000000D-02 -4.8041936815805D-02  1.0672291787820D-01
3  2.0000000000000D-02 -9.5280659873099D-02  2.1291011088883D-01
4  3.0000000000000D-02 -1.4092633726975D-01  3.1803182658474D-01
5  4.0000000000000D-02 -1.8421564917552D-01  4.2157015597577D-01
6  5.0000000000000D-02 -2.2442441960953D-01  5.2302470370661D-01
7  6.0000000000000D-02 -2.6087951257740D-01  6.2191796168295D-01
8  7.0000000000000D-02 -2.9296976952880D-01  7.1780029603575D-01
9  8.0000000000000D-02 -3.2015578355643D-01  8.1025446459100D-01
10  9.0000000000000D-02 -3.4197832816269D-01  8.9889959084658D-01
11  1.0000000000000D-01 -3.5806528434229D-01  9.8339453068065D-01
12  1.1000000000000D-01 -3.6813693867102D-01  1.0634405794329D+00
13  1.2000000000000D-01 -3.7200955650076D-01  1.1387834793936D+00
14  1.3000000000000D-01 -3.6959716763475D-01  1.2092147008715D+00
15  1.4000000000000D-01 -3.6091153635928D-01  1.2745719836333D+00
16  1.5000000000000D-01 -3.4606032277393D-01  1.3347391393699D+00
17  1.6000000000000D-01 -3.2524347732004D-01  1.3896451296597D+00
18  1.7000000000000D-01 -2.9874794458214D-01  1.4392624474293D+00
19  1.8000000000000D-01 -2.6694078516998D-01  1.4836048428770D+00
20  1.9000000000000D-01 -2.3026085514825D-01  1.5227244469879D+00
21  2.0000000000000D-01 -1.8920921047001D-01  1.5567083568917D+00
22  2.1000000000000D-01 -1.4433842864611D-01  1.5856747571878D+00
23  2.2000000000000D-01 -9.6241060959593D-02  1.6097686597852D+00
24  2.3000000000000D-01 -4.5537445498220D-02  1.6291573516292D+00
25  2.4000000000000D-01  7.1368762093979D-03  1.6440256447630D+00
26  2.5000000000000D-01  6.1143888358985D-02  1.6545710264173D+00
27  2.6000000000000D-01  1.1585572230063D-01  1.6609988081517D+00
28  2.7000000000000D-01  1.7066691869333D-01  1.6635173724788D+00
29  2.8000000000000D-01  2.2500608575521D-01  1.6623336128731D+00
30  2.9000000000000D-01  2.7834672068887D-01  1.6576486586697D+00
31  3.0000000000000D-01  3.3021697765509D-01  1.6496539701494D+00
32  3.1000000000000D-01  3.8020818625222D-01  1.6385278812271D+00
33  3.2000000000000D-01  4.2798194894472D-01  1.6244326577387D+00
34  3.3000000000000D-01  4.7327567381970D-01  1.6075121285486D+00
35  3.4000000000000D-01  5.1590642990497D-01  1.5878899347773D+00
36  3.5000000000000D-01  5.5577304546969D-01  1.5656684296024D+00
37  3.6000000000000D-01  5.9285640462152D-01  1.5409282475685D+00
38  3.7000000000000D-01  6.2721793343755D-01  1.5137285484049D+00
39  3.8000000000000D-01  6.5899630313653D-01  1.4841079262794D+00
40  3.9000000000000D-01  6.8840241370732D-01  1.4520859614630D+00
41  4.0000000000000D-01  7.1571275626419D-01  1.4176653778427D+00
42  4.1000000000000D-01  7.4126128551434D-01  1.3808347568435D+00
43  4.2000000000000D-01  7.6542996445191D-01  1.3415717463703D+00
44  4.3000000000000D-01  7.8863817112020D-01  1.2998466925946D+00
45  4.4000000000000D-01  8.1133118146091D-01  1.2556266130038D+00
46  4.5000000000000D-01  8.3396796239995D-01  1.2088794212948D+00
47  4.6000000000000D-01  8.5700852499231D-01  1.1595783085922D+00
48  4.7000000000000D-01  8.8090109832840D-01  1.1077061812363D+00
49  4.8000000000000D-01  9.0606939074977D-01  1.0532600531092D+00
50  4.9000000000000D-01  9.3290020558512D-01  9.9625529021036D-01
51  5.0000000000000D-01  9.6173167404521D-01  9.3672960697337D-01
52  5.1000000000000D-01  9.9284235816979D-01  8.7474671761323D-01
53  5.2000000000000D-01  1.0264414619331D+00  8.1039955155423D-01
54  5.3000000000000D-01  1.0626603690414D+00  7.4381294961449D-01
55  5.4000000000000D-01  1.1015457019653D+00  6.7514576697053D-01
56  5.5000000000000D-01  1.1430540687047D+00  6.0459231985236D-01
57  5.6000000000000D-01  1.1870486322537D+00  5.3238312520373D-01
58  5.7000000000000D-01  1.2332976033084D+00  4.5878489595428D-01
59  5.8000000000000D-01  1.2814747199365D+00  3.8409976889447D-01
60  5.9000000000000D-01  1.3311617396884D+00  3.0866375703991D-01
61  6.0000000000000D-01  1.3818529302729D+00  2.3284443369876D-01
62  6.1000000000000D-01  1.4329615056843D+00  1.5703787073369D-01
63  6.2000000000000D-01  1.4838279158412D+00  8.1664868623618D-02
64  6.3000000000000D-01  1.5337298604424D+00  7.1665304673336D-03
65  6.4000000000000D-01  1.5818938625420D+00 -6.6000754237243D-02
66  6.5000000000000D-01  1.6275082047326D+00 -1.3737083752741D-01
67  6.6000000000000D-01  1.6697370018817D+00 -2.0647376287207D-01
68  6.7000000000000D-01  1.7077351593030D+00 -2.7284203755754D-01
69  6.8000000000000D-01  1.7406639447051D+00 -3.3601712014012D-01
70  6.9000000000000D-01  1.7677068867680D+00 -3.9555600956805D-01
71  7.0000000000000D-01  1.7880857029574D+00 -4.5103781865425D-01
72  7.1000000000000D-01  1.8010759544714D+00 -5.0207021282451D-01
73  7.2000000000000D-01  1.8060221272366D+00 -5.4829559555239D-01
74  7.3000000000000D-01  1.8023518445679D+00 -5.8939692459836D-01
75  7.4000000000000D-01  1.7895889295068D+00 -6.2510304811168D-01
76  7.5000000000000D-01  1.7673650525529D+00 -6.5519345666359D-01
77  7.6000000000000D-01  1.7354297236204D+00 -6.7950235641411D-01
78  7.7000000000000D-01  1.6936584147314D+00 -6.9792197953104D-01
79  7.8000000000000D-01  1.6420586320454D+00 -7.1040506062256D-01
80  7.9000000000000D-01  1.5807737916233D+00 -7.1696642203908D-01
81  8.0000000000000D-01  1.5100847922139D+00 -7.1768362620428D-01
82  8.1000000000000D-01  1.4304092196308D+00 -7.1269666937548D-01
83  8.2000000000000D-01  1.3422981602001D+00 -7.0220670811238D-01
84  8.3000000000000D-01  1.2464306445146D+00 -6.8647382694326D-01
85  8.4000000000000D-01  1.1436057865104D+00 -6.6581387293763D-01
86  8.5000000000000D-01  1.0347327258740D+00 -6.4059439980672D-01
87  8.6000000000000D-01  9.2081852317518D-01 -6.1122978043783D-01
88  8.7000000000000D-01  8.0295419611573D-01 -5.7817556211882D-01
89  8.8000000000000D-01  6.8229912114357D-01 -5.4192215283175D-01
90  8.9000000000000D-01  5.6006405670660D-01 -5.0298793961740D-01
91  9.0000000000000D-01  4.3749307198407D-01 -4.6191195089061D-01
92  9.1000000000000D-01  3.1584468748851D-01 -4.1924618350385D-01
93  9.2000000000000D-01  1.9637255101810D-01 -3.7554772213398D-01
94  9.3000000000000D-01  8.0305983699141D-02 -3.3137078306424D-01
95  9.4000000000000D-01 -3.1169263961669D-02 -2.8725881655006D-01
96  9.5000000000000D-01 -1.3692970713666D-01 -2.4373680163795D-01
97  9.6000000000000D-01 -2.3593194125742D-01 -2.0130386454158D-01
98  9.7000000000000D-01 -3.2722925794642D-01 -1.6042634651012D-01
99  9.8000000000000D-01 -4.0998676354155D-01 -1.2153143960922D-01
100  9.9000000000000D-01 -4.8349472681986D-01 -8.5001498986184D-02
101  1.0000000000000D+00 -5.4717991164542D-01 -5.1169128866768D-02
102  1.0100000000000D+00 -6.0061468671332D-01 -2.0313125338831D-02
103  1.0200000000000D+00 -6.4352374243508D-01  7.3446557835428D-03
104  1.0300000000000D+00 -6.7578828778490D-01  3.1641454404303D-02
105  1.0400000000000D+00 -6.9744764450297D-01  5.2474750683129D-02
106  1.0500000000000D+00 -7.0869820489731D-01  6.9802383525416D-02
107  1.0600000000000D+00 -7.0988976202621D-01  8.3641644500969D-02
108  1.0700000000000D+00 -7.0151927549322D-01  9.4067369949683D-02
109  1.0800000000000D+00 -6.8422217843810D-01  1.0120907059547D-01
110  1.0900000000000D+00 -6.5876137828039D-01  1.0524715636740D-01
111  1.1000000000000D+00 -6.2601414784027D-01  1.0640833138251D-01
112  1.1100000000000D+00 -5.8695713795139D-01  1.0496024755446D-01
113  1.1200000000000D+00 -5.4264978591630D-01  1.0120552224775D-01
114  1.1300000000000D+00 -4.9421641890407D-01  9.5475235118367D-02
115  1.1400000000000D+00 -4.4282737999538D-01  8.8122030538413D-02
116  1.1500000000000D+00 -3.8967952099606D-01  7.9512958469616D-02
117  1.1600000000000D+00 -3.3597642498140D-01  7.0022194121028D-02
118  1.1700000000000D+00 -2.8290873273921D-01  6.0023780896386D-02
119  1.1800000000000D+00 -2.3163493800503D-01  4.9884538329000D-02
120  1.1900000000000D+00 -1.8326272099673D-01  3.9957168802494D-02
121  1.2000000000000D+00 -1.3883243491828D-01  3.0574155420225D-02
122  1.2100000000000D+00 -9.9300887246582D-02  2.2041789084554D-02
123  1.2200000000000D+00 -6.5528283751009D-02  1.4634054036644D-02
124  1.2300000000000D+00 -3.8213831009803D-02  8.5750170297932D-03
125  1.2400000000000D+00 -1.7819580329822D-02  4.0187361920419D-03
126  1.2500000000000D+00 -5.3477420645404D-03  1.2265664007405D-03
127  1.2600000000000D+00 -2.7426258246439D-04  9.0503490189344D-05
128  1.2700000000000D+00  3.9177168750537D-04 -7.5361987853343D-05
129  1.2800000000000D+00 -1.0226501375631D-04  2.0565165263939D-05
130  1.2900000000000D+00 -4.7406472246852D-05  9.6881979962295D-06
131  1.3000000000000D+00  2.4960642472562D-05 -4.9292137761385D-06
132  1.3100000000000D+00 -3.2463565991656D-08 -3.6322383986496D-08
133  1.3200000000000D+00 -3.3052984400304D-08 -3.6981864271968D-08
134  1.3300000000000D+00  0.0000000000000D+00  0.0000000000000D+00
135  1.3400000000000D+00  0.0000000000000D+00  0.0000000000000D+00
136  1.3500000000000D+00  0.0000000000000D+00  0.0000000000000D+00
137  1.3600000000000D+00  0.0000000000000D+00  0.0000000000000D+00
138  1.3700000000000D+00  0.0000000000000D+00  0.0000000000000D+00
139  1.3800000000000D+00  0.0000000000000D+00  0.0000000000000D+00
140  1.3900000000000D+00  0.0000000000000D+00  0.0000000000000D+00
141  1.4000000000000D+00  0.0000000000000D+00  0.0000000000000D+00
142  1.4100000000000D+00  0.0000000000000D+00  0.0000000000000D+00
143  1.4200000000000D+00  0.0000000000000D+00  0.0000000000000D+00
144  1.4300000000000D+00  0.0000000000000D+00  0.0000000000000D+00
145  1.4400000000000D+00  0.0000000000000D+00  0.0000000000000D+00
146  1.4500000000000D+00  0.0000000000000D+00  0.0000000000000D+00
147  1.4600000000000D+00  0.0000000000000D+00  0.0000000000000D+00
148  1.4700000000000D+00  0.0000000000000D+00  0.0000000000000D+00
149  1.4800000000000D+00  0.0000000000000D+00  0.0000000000000D+00
150  1.4900000000000D+00  0.0000000000000D+00  0.0000000000000D+00
151  1.5000000000000D+00  0.0000000000000D+00  0.0000000000000D+00
152  1.5100000000000D+00  0.0000000000000D+00  0.0000000000000D+00
153  1.5200000000000D+00  0.0000000000000D+00  0.0000000000000D+00
154  1.5300000000000D+00  0.0000000000000D+00  0.0000000000000D+00
155  1.5400000000000D+00  0.0000000000000D+00  0.0000000000000D+00
156  1.5500000000000D+00  0.0000000000000D+00  0.0000000000000D+00
157  1.5600000000000D+00  0.0000000000000D+00  0.0000000000000D+00
158  1.5700000000000D+00  0.0000000000000D+00  0.0000000000000D+00
159  1.5800000000000D+00  0.0000000000000D+00  0.0000000000000D+00
160  1.5900000000000D+00  0.0000000000000D+00  0.0000000000000D+00
161  1.6000000000000D+00  0.0000000000000D+00  0.0000000000000D+00
162  1.6100000000000D+00  0.0000000000000D+00  0.0000000000000D+00
163  1.6200000000000D+00  0.0000000000000D+00  0.0000000000000D+00
164  1.6300000000000D+00  0.0000000000000D+00  0.0000000000000D+00
165  1.6400000000000D+00  0.0000000000000D+00  0.0000000000000D+00
166  1.6500000000000D+00  0.0000000000000D+00  0.0000000000000D+00
167  1.6600000000000D+00  0.0000000000000D+00  0.0000000000000D+00
168  1.6700000000000D+00  0.0000000000000D+00  0.0000000000000D+00
169  1.6800000000000D+00  0.0000000000000D+00  0.0000000000000D+00
170  1.6900000000000D+00  0.0000000000000D+00  0.0000000000000D+00
171  1.7000000000000D+00  0.0000000000000D+00  0.0000000000000D+00
172  1.7100000000000D+00  0.0000000000000D+00  0.0000000000000D+00
173  1.7200000000000D+00  0.0000000000000D+00  0.0000000000000D+00
174  1.7300000000000D+00  0.0000000000000D+00  0.0000000000000D+00
175  1.7400000000000D+00  0.0000000000000D+00  0.0000000000000D+00
176  1.7500000000000D+00  0.0000000000000D+00  0.0000000000000D+00
177  1.7600000000000D+00  0.0000000000000D+00  0.0000000000000D+00
178  1.7700000000000D+00  0.0000000000000D+00  0.0000000000000D+00
179  1.7800000000000D+00  0.0000000000000D+00  0.0000000000000D+00
180  1.7900000000000D+00  0.0000000000000D+00  0.0000000000000D+00
181  1.8000000000000D+00  0.0000000000000D+00  0.0000000000000D+00
182  1.8100000000000D+00  0.0000000000000D+00  0.0000000000000D+00
183  1.8200000000000D+00  0.0000000000000D+00  0.0000000000000D+00
184  1.8300000000000D+00  0.0000000000000D+00  0.0000000000000D+00
185  1.8400000000000D+00  0.0000000000000D+00  0.0000000000000D+00
186  1.8500000000000D+00  0.0000000000000D+00  0.0000000000000D+00
187  1.8600000000000D+00  0.0000000000000D+00  0.0000000000000D+00
188  1.8700000000000D+00  0.0000000000000D+00  0.0000000000000D+00
189  1.8800000000000D+00  0.0000000000000D+00  0.0000000000000D+00
190  1.8900000000000D+00  0.0000000000000D+00  0.0000000000000D+00
191  1.9000000000000D+00  0.0000000000000D+00  0.0000000000000D+00
192  1.9100000000000D+00  0.0000000000000D+00  0.0000000000000D+00
193  1.9200000000000D+00  0.0000000000000D+00  0.0000000000000D+00
194  1.9300000000000D+00  0.0000000000000D+00  0.0000000000000D+00
195  1.9400000000000D+00  0.0000000000000D+00  0.0000000000000D+00
196  1.9500000000000D+00  0.0000000000000D+00  0.0000000000000D+00
197  1.9600000000000D+00  0.0000000000000D+00  0.0000000000000D+00
198  1.9700000000000D+00  0.0000000000000D+00  0.0000000000000D+00
199  1.9800000000000D+00  0.0000000000000D+00  0.0000000000000D+00
200  1.9900000000000D+00  0.0000000000000D+00  0.0000000000000D+00
201  2.0000000000000D+00  0.0000000000000D+00  0.0000000000000D+00
202  2.0100000000000D+00  0.0000000000000D+00  0.0000000000000D+00
203  2.0200000000000D+00  0.0000000000000D+00  0.0000000000000D+00
204  2.0300000000000D+00  0.0000000000000D+00  0.0000000000000D+00
205  2.0400000000000D+00  0.0000000000000D+00  0.0000000000000D+00
206  2.0500000000000D+00  0.0000000000000D+00  0.0000000000000D+00
207  2.0600000000000D+00  0.0000000000000D+00  0.0000000000000D+00
208  2.0700000000000D+00  0.0000000000000D+00  0.0000000000000D+00
209  2.0800000000000D+00  0.0000000000000D+00  0.0000000000000D+00
210  2.0900000000000D+00  0.0000000000000D+00  0.0000000000000D+00
211  2.1000000000000D+00  0.0000000000000D+00  0.0000000000000D+00
212  2.1100000000000D+00  0.0000000000000D+00  0.0000000000000D+00
213  2.1200000000000D+00  0.0000000000000D+00  0.0000000000000D+00
214  2.1300000000000D+00  0.0000000000000D+00  0.0000000000000D+00
215  2.1400000000000D+00  0.0000000000000D+00  0.0000000000000D+00
216  2.1500000000000D+00  0.0000000000000D+00  0.0000000000000D+00
217  2.1600000000000D+00  0.0000000000000D+00  0.0000000000000D+00
218  2.1700000000000D+00  0.0000000000000D+00  0.0000000000000D+00
219  2.1800000000000D+00  0.0000000000000D+00  0.0000000000000D+00
220  2.1900000000000D+00  0.0000000000000D+00  0.0000000000000D+00
221  2.2000000000000D+00  0.0000000000000D+00  0.0000000000000D+00
222  2.2100000000000D+00  0.0000000000000D+00  0.0000000000000D+00
223  2.2200000000000D+00  0.0000000000000D+00  0.0000000000000D+00
224  2.2300000000000D+00  0.0000000000000D+00  0.0000000000000D+00
225  2.2400000000000D+00  0.0000000000000D+00  0.0000000000000D+00
226  2.2500000000000D+00  0.0000000000000D+00  0.0000000000000D+00
227  2.2600000000000D+00  0.0000000000000D+00  0.0000000000000D+00
228  2.2700000000000D+00  0.0000000000000D+00  0.0000000000000D+00
229  2.2800000000000D+00  0.0000000000000D+00  0.0000000000000D+00
230  2.2900000000000D+00  0.0000000000000D+00  0.0000000000000D+00
231  2.3000000000000D+00  0.0000000000000D+00  0.0000000000000D+00
232  2.3100000000000D+00  0.0000000000000D+00  0.0000000000000D+00
233  2.3200000000000D+00  0.0000000000000D+00  0.0000000000000D+00
234  2.3300000000000D+00  0.0000000000000D+00  0.0000000000000D+00
235  2.3400000000000D+00  0.0000000000000D+00  0.0000000000000D+00
236  2.3500000000000D+00  0.0000000000000D+00  0.0000000000000D+00
237  2.3600000000000D+00  0.0000000000000D+00  0.0000000000000D+00
238  2.3700000000000D+00  0.0000000000000D+00  0.0000000000000D+00
239  2.3800000000000D+00  0.0000000000000D+00  0.0000000000000D+00
240  2.3900000000000D+00  0.0000000000000D+00  0.0000000000000D+00
241  2.4000000000000D+00  0.0000000000000D+00  0.0000000000000D+00
242  2.4100000000000D+00  0.0000000000000D+00  0.0000000000000D+00
243  2.4200000000000D+00  0.0000000000000D+00  0.0000000000000D+00
244  2.4300000000000D+00  0.0000000000000D+00  0.0000000000000D+00
245  2.4400000000000D+00  0.0000000000000D+00  0.0000000000000D+00
246  2.4500000000000D+00  0.0000000000000D+00  0.0000000000000D+00
247  2.4600000000000D+00  0.0000000000000D+00  0.0000000000000D+00
248  2.4700000000000D+00  0.0000000000000D+00  0.0000000000000D+00
249  2.4800000000000D+00  0.0000000000000D+00  0.0000000000000D+00
250  2.4900000000000D+00  0.0000000000000D+00  0.0000000000000D+00
251  2.5000000000000D+00  0.0000000000000D+00  0.0000000000000D+00
252  2.5100000000000D+00  0.0000000000000D+00  0.0000000000000D+00
253  2.5200000000000D+00  0.0000000000000D+00  0.0000000000000D+00
254  2.5300000000000D+00  0.0000000000000D+00  0.0000000000000D+00
255  2.5400000000000D+00  0.0000000000000D+00  0.0000000000000D+00
256  2.5500000000000D+00  0.0000000000000D+00  0.0000000000000D+00
257  2.5600000000000D+00  0.0000000000000D+00  0.0000000000000D+00
258  2.5700000000000D+00  0.0000000000000D+00  0.0000000000000D+00
259  2.5800000000000D+00  0.0000000000000D+00  0.0000000000000D+00
260  2.5900000000000D+00  0.0000000000000D+00  0.0000000000000D+00
261  2.6000000000000D+00  0.0000000000000D+00  0.0000000000000D+00
262  2.6100000000000D+00  0.0000000000000D+00  0.0000000000000D+00
263  2.6200000000000D+00  0.0000000000000D+00  0.0000000000000D+00
264  2.6300000000000D+00  0.0000000000000D+00  0.0000000000000D+00
265  2.6400000000000D+00  0.0000000000000D+00  0.0000000000000D+00
266  2.6500000000000D+00  0.0000000000000D+00  0.0000000000000D+00
267  2.6600000000000D+00  0.0000000000000D+00  0.0000000000000D+00
268  2.6700000000000D+00  0.0000000000000D+00  0.0000000000000D+00
269  2.6800000000000D+00  0.0000000000000D+00  0.0000000000000D+00
270  2.6900000000000D+00  0.0000000000000D+00  0.0000000000000D+00
271  2.7000000000000D+00  0.0000000000000D+00  0.0000000000000D+00
272  2.7100000000000D+00  0.0000000000000D+00  0.0000000000000D+00
273  2.7200000000000D+00  0.0000000000000D+00  0.0000000000000D+00
274  2.7300000000000D+00  0.0000000000000D+00  0.0000000000000D+00
275  2.7400000000000D+00  0.0000000000000D+00  0.0000000000000D+00
276  2.7500000000000D+00  0.0000000000000D+00  0.0000000000000D+00
277  2.7600000000000D+00  0.0000000000000D+00  0.0000000000000D+00
278  2.7700000000000D+00  0.0000000000000D+00  0.0000000000000D+00
279  2.7800000000000D+00  0.0000000000000D+00  0.0000000000000D+00
280  2.7900000000000D+00  0.0000000000000D+00  0.0000000000000D+00
281  2.8000000000000D+00  0.0000000000000D+00  0.0000000000000D+00
282  2.8100000000000D+00  0.0000000000000D+00  0.0000000000000D+00
283  2.8200000000000D+00  0.0000000000000D+00  0.0000000000000D+00
284  2.8300000000000D+00  0.0000000000000D+00  0.0000000000000D+00
285  2.8400000000000D+00  0.0000000000000D+00  0.0000000000000D+00
286  2.8500000000000D+00  0.0000000000000D+00  0.0000000000000D+00
287  2.8600000000000D+00  0.0000000000000D+00  0.0000000000000D+00
288  2.8700000000000D+00  0.0000000000000D+00  0.0000000000000D+00
289  2.8800000000000D+00  0.0000000000000D+00  0.0000000000000D+00
290  2.8900000000000D+00  0.0000000000000D+00  0.0000000000000D+00
291  2.9000000000000D+00  0.0000000000000D+00  0.0000000000000D+00
292  2.9100000000000D+00  0.0000000000000D+00  0.0000000000000D+00
293  2.9200000000000D+00  0.0000000000000D+00  0.0000000000000D+00
294  2.9300000000000D+00  0.0000000000000D+00  0.0000000000000D+00
295  2.9400000000000D+00  0.0000000000000D+00  0.0000000000000D+00
296  2.9500000000000D+00  0.0000000000000D+00  0.0000000000000D+00
297  2.9600000000000D+00  0.0000000000000D+00  0.0000000000000D+00
298  2.9700000000000D+00  0.0000000000000D+00  0.0000000000000D+00
299  2.9800000000000D+00  0.0000000000000D+00  0.0000000000000D+00
300  2.9900000000000D+00  0.0000000000000D+00  0.0000000000000D+00
301  3.0000000000000D+00  0.0000000000000D+00  0.0000000000000D+00
302  3.0100000000000D+00  0.0000000000000D+00  0.0000000000000D+00
303  3.0200000000000D+00  0.0000000000000D+00  0.0000000000000D+00
304  3.0300000000000D+00  0.0000000000000D+00  0.0000000000000D+00
305  3.0400000000000D+00  0.0000000000000D+00  0.0000000000000D+00
306  3.0500000000000D+00  0.0000000000000D+00  0.0000000000000D+00
307  3.0600000000000D+00  0.0000000000000D+00  0.0000000000000D+00
308  3.0700000000000D+00  0.0000000000000D+00  0.0000000000000D+00
309  3.0800000000000D+00  0.0000000000000D+00  0.0000000000000D+00
310  3.0900000000000D+00  0.0000000000000D+00  0.0000000000000D+00
311  3.1000000000000D+00  0.0000000000000D+00  0.0000000000000D+00
312  3.1100000000000D+00  0.0000000000000D+00  0.0000000000000D+00
313  3.1200000000000D+00  0.0000000000000D+00  0.0000000000000D+00
314  3.1300000000000D+00  0.0000000000000D+00  0.0000000000000D+00
315  3.1400000000000D+00  0.0000000000000D+00  0.0000000000000D+00
316  3.1500000000000D+00  0.0000000000000D+00  0.0000000000000D+00
317  3.1600000000000D+00  0.0000000000000D+00  0.0000000000000D+00
318  3.1700000000000D+00  0.0000000000000D+00  0.0000000000000D+00
319  3.1800000000000D+00  0.0000000000000D+00  0.0000000000000D+00
320  3.1900000000000D+00  0.0000000000000D+00  0.0000000000000D+00
321  3.2000000000000D+00  0.0000000000000D+00  0.0000000000000D+00
322  3.2100000000000D+00  0.0000000000000D+00  0.0000000000000D+00
323  3.2200000000000D+00  0.0000000000000D+00  0.0000000000000D+00
324  3.2300000000000D+00  0.0000000000000D+00  0.0000000000000D+00
325  3.2400000000000D+00  0.0000000000000D+00  0.0000000000000D+00
326  3.2500000000000D+00  0.0000000000000D+00  0.0000000000000D+00
327  3.2600000000000D+00  0.0000000000000D+00  0.0000000000000D+00
328  3.2700000000000D+00  0.0000000000000D+00  0.0000000000000D+00
329  3.2800000000000D+00  0.0000000000000D+00  0.0000000000000D+00
330  3.2900000000000D+00  0.0000000000000D+00  0.0000000000000D+00
331  3.3000000000000D+00  0.0000000000000D+00  0.0000000000000D+00
332  3.3100000000000D+00  0.0000000000000D+00  0.0000000000000D+00
333  3.3200000000000D+00  0.0000000000000D+00  0.0000000000000D+00
334  3.3300000000000D+00  0.0000000000000D+00  0.0000000000000D+00
335  3.3400000000000D+00  0.0000000000000D+00  0.0000000000000D+00
336  3.3500000000000D+00  0.0000000000000D+00  0.0000000000000D+00
337  3.3600000000000D+00  0.0000000000000D+00  0.0000000000000D+00
338  3.3700000000000D+00  0.0000000000000D+00  0.0000000000000D+00
339  3.3800000000000D+00  0.0000000000000D+00  0.0000000000000D+00
340  3.3900000000000D+00  0.0000000000000D+00  0.0000000000000D+00
341  3.4000000000000D+00  0.0000000000000D+00  0.0000000000000D+00
342  3.4100000000000D+00  0.0000000000000D+00  0.0000000000000D+00
343  3.4200000000000D+00  0.0000000000000D+00  0.0000000000000D+00
344  3.4300000000000D+00  0.0000000000000D+00  0.0000000000000D+00
345  3.4400000000000D+00  0.0000000000000D+00  0.0000000000000D+00
346  3.4500000000000D+00  0.0000000000000D+00  0.0000000000000D+00
347  3.4600000000000D+00  0.0000000000000D+00  0.0000000000000D+00
348  3.4700000000000D+00  0.0000000000000D+00  0.0000000000000D+00
349  3.4800000000000D+00  0.0000000000000D+00  0.0000000000000D+00
350  3.4900000000000D+00  0.0000000000000D+00  0.0000000000000D+00
351  3.5000000000000D+00  0.0000000000000D+00  0.0000000000000D+00
352  3.5100000000000D+00  0.0000000000000D+00  0.0000000000000D+00
353  3.5200000000000D+00  0.0000000000000D+00  0.0000000000000D+00
354  3.5300000000000D+00  0.0000000000000D+00  0.0000000000000D+00
355  3.5400000000000D+00  0.0000000000000D+00  0.0000000000000D+00
356  3.5500000000000D+00  0.0000000000000D+00  0.0000000000000D+00
357  3.5600000000000D+00  0.0000000000000D+00  0.0000000000000D+00
358  3.5700000000000D+00  0.0000000000000D+00  0.0000000000000D+00
359  3.5800000000000D+00  0.0000000000000D+00  0.0000000000000D+00
360  3.5900000000000D+00  0.0000000000000D+00  0.0000000000000D+00
361  3.6000000000000D+00  0.0000000000000D+00  0.0000000000000D+00
362  3.6100000000000D+00  0.0000000000000D+00  0.0000000000000D+00
363  3.6200000000000D+00  0.0000000000000D+00  0.0000000000000D+00
364  3.6300000000000D+00  0.0000000000000D+00  0.0000000000000D+00
365  3.6400000000000D+00  0.0000000000000D+00  0.0000000000000D+00
366  3.6500000000000D+00  0.0000000000000D+00  0.0000000000000D+00
367  3.6600000000000D+00  0.0000000000000D+00  0.0000000000000D+00
368  3.6700000000000D+00  0.0000000000000D+00  0.0000000000000D+00
369  3.6800000000000D+00  0.0000000000000D+00  0.0000000000000D+00
370  3.6900000000000D+00  0.0000000000000D+00  0.0000000000000D+00
371  3.7000000000000D+00  0.0000000000000D+00  0.0000000000000D+00
372  3.7100000000000D+00  0.0000000000000D+00  0.0000000000000D+00
373  3.7200000000000D+00  0.0000000000000D+00  0.0000000000000D+00
374  3.7300000000000D+00  0.0000000000000D+00  0.0000000000000D+00
375  3.7400000000000D+00  0.0000000000000D+00  0.0000000000000D+00
376  3.7500000000000D+00  0.0000000000000D+00  0.0000000000000D+00
377  3.7600000000000D+00  0.0000000000000D+00  0.0000000000000D+00
378  3.7700000000000D+00  0.0000000000000D+00  0.0000000000000D+00
379  3.7800000000000D+00  0.0000000000000D+00  0.0000000000000D+00
380  3.7900000000000D+00  0.0000000000000D+00  0.0000000000000D+00
381  3.8000000000000D+00  0.0000000000000D+00  0.0000000000000D+00
382  3.8100000000000D+00  0.0000000000000D+00  0.0000000000000D+00
383  3.8200000000000D+00  0.0000000000000D+00  0.0000000000000D+00
384  3.8300000000000D+00  0.0000000000000D+00  0.0000000000000D+00
385  3.8400000000000D+00  0.0000000000000D+00  0.0000000000000D+00
386  3.8500000000000D+00  0.0000000000000D+00  0.0000000000000D+00
387  3.8600000000000D+00  0.0000000000000D+00  0.0000000000000D+00
388  3.8700000000000D+00  0.0000000000000D+00  0.0000000000000D+00
389  3.8800000000000D+00  0.0000000000000D+00  0.0000000000000D+00
390  3.8900000000000D+00  0.0000000000000D+00  0.0000000000000D+00
391  3.9000000000000D+00  0.0000000000000D+00  0.0000000000000D+00
392  3.9100000000000D+00  0.0000000000000D+00  0.0000000000000D+00
393  3.9200000000000D+00  0.0000000000000D+00  0.0000000000000D+00
394  3.9300000000000D+00  0.0000000000000D+00  0.0000000000000D+00
395  3.9400000000000D+00  0.0000000000000D+00  0.0000000000000D+00
396  3.9500000000000D+00  0.0000000000000D+00  0.0000000000000D+00
397  3.9600000000000D+00  0.0000000000000D+00  0.0000000000000D+00
398  3.9700000000000D+00  0.0000000000000D+00  0.0000000000000D+00
399  3.9800000000000D+00  0.0000000000000D+00  0.0000000000000D+00
400  3.9900000000000D+00  0.0000000000000D+00  0.0000000000000D+00
401  4.0000000000000D+00  0.0000000000000D+00  0.0000000000000D+00
402  4.0100000000000D+00  0.0000000000000D+00  0.0000000000000D+00
403  4.0200000000000D+00  0.0000000000000D+00  0.0000000000000D+00
404  4.0300000000000D+00  0.0000000000000D+00  0.0000000000000D+00
405  4.0400000000000D+00  0.0000000000000D+00  0.0000000000000D+00
406  4.0500000000000D+00  0.0000000000000D+00  0.0000000000000D+00
407  4.0600000000000D+00  0.0000000000000D+00  0.0000000000000D+00
408  4.0700000000000D+00  0.0000000000000D+00  0.0000000000000D+00
409  4.0800000000000D+00  0.0000000000000D+00  0.0000000000000D+00
410  4.0900000000000D+00  0.0000000000000D+00  0.0000000000000D+00
411  4.1000000000000D+00  0.0000000000000D+00  0.0000000000000D+00
412  4.1100000000000D+00  0.0000000000000D+00  0.0000000000000D+00
413  4.1200000000000D+00  0.0000000000000D+00  0.0000000000000D+00
414  4.1300000000000D+00  0.0000000000000D+00  0.0000000000000D+00
415  4.1400000000000D+00  0.0000000000000D+00  0.0000000000000D+00
416  4.1500000000000D+00  0.0000000000000D+00  0.0000000000000D+00
417  4.1600000000000D+00  0.0000000000000D+00  0.0000000000000D+00
418  4.1700000000000D+00  0.0000000000000D+00  0.0000000000000D+00
419  4.1800000000000D+00  0.0000000000000D+00  0.0000000000000D+00
420  4.1900000000000D+00  0.0000000000000D+00  0.0000000000000D+00
421  4.2000000000000D+00  0.0000000000000D+00  0.0000000000000D+00
422  4.2100000000000D+00  0.0000000000000D+00  0.0000000000000D+00
423  4.2200000000000D+00  0.0000000000000D+00  0.0000000000000D+00
424  4.2300000000000D+00  0.0000000000000D+00  0.0000000000000D+00
425  4.2400000000000D+00  0.0000000000000D+00  0.0000000000000D+00
426  4.2500000000000D+00  0.0000000000000D+00  0.0000000000000D+00
427  4.2600000000000D+00  0.0000000000000D+00  0.0000000000000D+00
428  4.2700000000000D+00  0.0000000000000D+00  0.0000000000000D+00
429  4.2800000000000D+00  0.0000000000000D+00  0.0000000000000D+00
430  4.2900000000000D+00  0.0000000000000D+00  0.0000000000000D+00
431  4.3000000000000D+00  0.0000000000000D+00  0.0000000000000D+00
432  4.3100000000000D+00  0.0000000000000D+00  0.0000000000000D+00
433  4.3200000000000D+00  0.0000000000000D+00  0.0000000000000D+00
434  4.3300000000000D+00  0.0000000000000D+00  0.0000000000000D+00
435  4.3400000000000D+00  0.0000000000000D+00  0.0000000000000D+00
436  4.3500000000000D+00  0.0000000000000D+00  0.0000000000000D+00
437  4.3600000000000D+00  0.0000000000000D+00  0.0000000000000D+00
438  4.3700000000000D+00  0.0000000000000D+00  0.0000000000000D+00
439  4.3800000000000D+00  0.0000000000000D+00  0.0000000000000D+00
440  4.3900000000000D+00  0.0000000000000D+00  0.0000000000000D+00
441  4.4000000000000D+00  0.0000000000000D+00  0.0000000000000D+00
442  4.4100000000000D+00  0.0000000000000D+00  0.0000000000000D+00
443  4.4200000000000D+00  0.0000000000000D+00  0.0000000000000D+00