Os    ONCVPSP-3.3.0  r_core=   1.51352   1.55006   1.55006   2.27051
76.0000     16.0000      180430    zatom,zion,pspd
8 -116133   3     4   600     0    pspcod,pspxc,lmax,lloc,mmax,r2well
5.99000000  5.00000000  0.00000000    rchrg fchrg qchrg
2     4     3     4    nproj
3     1           extension_switch
4     4     4    nprojso
0                        -1.2803681966109D+00  7.9711774071223D+00
1  0.0000000000000D+00  2.4587479829918D-09  2.8920010830547D-10
2  1.0000000000000D-02 -6.6963688994284D-02  5.6698583528520D-02
3  2.0000000000000D-02 -1.3352017091674D-01  1.1333250838173D-01
4  3.0000000000000D-02 -1.9926601757508D-01  1.6983689259203D-01
5  4.0000000000000D-02 -2.6380531128926D-01  2.2614641284949D-01
6  5.0000000000000D-02 -3.2675328266616D-01  2.8219509686150D-01
7  6.0000000000000D-02 -3.8773980916764D-01  3.3791613114119D-01
8  7.0000000000000D-02 -4.4641273099627D-01  3.9324168902338D-01
9  8.0000000000000D-02 -5.0244094328194D-01  4.4810278341755D-01
10  9.0000000000000D-02 -5.5551722656375D-01  5.0242914845330D-01
11  1.0000000000000D-01 -6.0536078108598D-01  5.5614915375859D-01
12  1.1000000000000D-01 -6.5171943441771D-01  6.0918975464172D-01
13  1.2000000000000D-01 -6.9437149630878D-01  6.6147648092906D-01
14  1.3000000000000D-01 -7.3312723945238D-01  7.1293346665020D-01
15  1.4000000000000D-01 -7.6782998987325D-01  7.6348352216694D-01
16  1.5000000000000D-01 -7.9835681593155D-01  8.1304824972067D-01
17  1.6000000000000D-01 -8.2461881035664D-01  8.6154820273258D-01
18  1.7000000000000D-01 -8.4656096522841D-01  9.0890308854064D-01
19  1.8000000000000D-01 -8.6416164533266D-01  9.5503201360639D-01
20  1.9000000000000D-01 -8.7743167075628D-01  9.9985376958022D-01
21  2.0000000000000D-01 -8.8641302488469D-01  1.0432871579865D+00
22  2.1000000000000D-01 -8.9117720904518D-01  1.0852513506868D+00
23  2.2000000000000D-01 -8.9182326983516D-01  1.1256662827100D+00
24  2.3000000000000D-01 -8.8847552961970D-01  1.1644530735073D+00
25  2.4000000000000D-01 -8.8128105471415D-01  1.2015344722118D+00
26  2.5000000000000D-01 -8.7040689932993D-01  1.2368353220529D+00
27  2.6000000000000D-01 -8.5603716640305D-01  1.2702830387130D+00
28  2.7000000000000D-01 -8.3836992890381D-01  1.3018080971140D+00
29  2.8000000000000D-01 -8.1761405710245D-01  1.3313445208922D+00
30  2.9000000000000D-01 -7.9398599851487D-01  1.3588303686670D+00
31  3.0000000000000D-01 -7.6770655785032D-01  1.3842082111320D+00
32  3.1000000000000D-01 -7.3899772422069D-01  1.4074255929976D+00
33  3.2000000000000D-01 -7.0807959214413D-01  1.4284354738945D+00
34  3.3000000000000D-01 -6.7516742149007D-01  1.4471966425097D+00
35  3.4000000000000D-01 -6.4046887948478D-01  1.4636740984593D+00
36  3.5000000000000D-01 -6.0418150524778D-01  1.4778393967161D+00
37  3.6000000000000D-01 -5.6649043409474D-01  1.4896709497944D+00
38  3.7000000000000D-01 -5.2756641505991D-01  1.4991542833397D+00
39  3.8000000000000D-01 -4.8756415081137D-01  1.5062822412871D+00
40  3.9000000000000D-01 -4.4662098440832D-01  1.5110551373164D+00
41  4.0000000000000D-01 -4.0485595224623D-01  1.5134808499461D+00
42  4.1000000000000D-01 -3.6236921711783D-01  1.5135748592674D+00
43  4.2000000000000D-01 -3.1924188965964D-01  1.5113602240046D+00
44  4.3000000000000D-01 -2.7553624063303D-01  1.5068674983005D+00
45  4.4000000000000D-01 -2.3129630058076D-01  1.5001345883550D+00
46  4.5000000000000D-01 -1.8654883749277D-01  1.4912065497707D+00
47  4.6000000000000D-01 -1.4130469728381D-01  1.4801353271930D+00
48  4.7000000000000D-01 -9.5560486219355D-02  1.4669794385402D+00
49  4.8000000000000D-01 -4.9300569000204D-02  1.4518036068103D+00
50  4.9000000000000D-01 -2.4993511136775D-03  1.4346783431093D+00
51  5.0000000000000D-01  4.4876190648592D-02  1.4156794851574D+00
52  5.1000000000000D-01  9.2863769846284D-02  1.3948876960985D+00
53  5.2000000000000D-01  1.4150288826918D-01  1.3723879289401D+00
54  5.3000000000000D-01  1.9083181720633D-01  1.3482688623984D+00
55  5.4000000000000D-01  2.4088451175149D-01  1.3226223142869D+00
56  5.5000000000000D-01  2.9168750958471D-01  1.2955426388855D+00
57  5.6000000000000D-01  3.4325686674462D-01  1.2671261149342D+00
58  5.7000000000000D-01  3.9559518323980D-01  1.2374703310263D+00
59  5.8000000000000D-01  4.4868877092323D-01  1.2066735752102D+00
60  5.9000000000000D-01  5.0250501486531D-01  1.1748342355643D+00
61  6.0000000000000D-01  5.5698997752295D-01  1.1420502183683D+00
62  6.1000000000000D-01  6.1206629230801D-01  1.1084183902698D+00
63  6.2000000000000D-01  6.6763138977954D-01  1.0740340505345D+00
64  6.3000000000000D-01  7.2355609558844D-01  1.0389904390750D+00
65  6.4000000000000D-01  7.7968363461705D-01  1.0033782854840D+00
66  6.5000000000000D-01  8.3582907047219D-01  9.6728540375678D-01
67  6.6000000000000D-01  8.9177920369148D-01  9.3079633677966D-01
68  6.7000000000000D-01  9.4729294581134D-01  8.9399205400110D-01
69  6.8000000000000D-01  1.0021021798562D+00  8.5694970498686D-01
70  6.9000000000000D-01  1.0559131109420D+00  8.1974243081001D-01
71  7.0000000000000D-01  1.1084081036529D+00  7.8243923444410D-01
72  7.1000000000000D-01  1.1592479957348D+00  7.4510491052849D-01
73  7.2000000000000D-01  1.2080748705135D+00  7.0780003406240D-01
74  7.3000000000000D-01  1.2545152634434D+00  6.7058100677708D-01
75  7.4000000000000D-01  1.2981837713882D+00  6.3350015914076D-01
76  7.5000000000000D-01  1.3386870267363D+00  5.9660590517951D-01
77  7.6000000000000D-01  1.3756279923399D+00  5.5994294655996D-01
78  7.7000000000000D-01  1.4086105276751D+00  5.2355252169074D-01
79  7.8000000000000D-01  1.4372441715456D+00  4.8747269495888D-01
80  7.9000000000000D-01  1.4611490822890D+00  4.5173868064762D-01
81  8.0000000000000D-01  1.4799610727666D+00  4.1638319558046D-01
82  8.1000000000000D-01  1.4933366745382D+00  3.8143683411588D-01
83  8.2000000000000D-01  1.5009581635826D+00  3.4692845878303D-01
84  8.3000000000000D-01  1.5025384787594D+00  3.1288559960665D-01
85  8.4000000000000D-01  1.4978259639594D+00  2.7933485502287D-01
86  8.5000000000000D-01  1.4866088655690D+00  2.4630228724073D-01
87  8.6000000000000D-01  1.4687195184926D+00  2.1381380495727D-01
88  8.7000000000000D-01  1.4440381565222D+00  1.8189552648837D-01
89  8.8000000000000D-01  1.4124962863084D+00  1.5057411663186D-01
90  8.9000000000000D-01  1.3740795685271D+00  1.1987709093019D-01
91  9.0000000000000D-01  1.3288301550187D+00  8.9833081445371D-02
92  9.1000000000000D-01  1.2768484366407D+00  6.0472058691511D-02
93  9.2000000000000D-01  1.2182941632554D+00  3.1825504985686D-02
94  9.3000000000000D-01  1.1533869045946D+00  3.9265351670083D-03
95  9.4000000000000D-01  1.0824058286123D+00 -2.3190038611247D-02
96  9.5000000000000D-01  1.0056887822583D+00 -4.9487700501578D-02
97  9.6000000000000D-01  9.2363066831412D-01 -7.4928284620130D-02
98  9.7000000000000D-01  8.3668112083332D-01 -9.9472089480445D-02
99  9.8000000000000D-01  7.4534149070755D-01 -1.2307805303617D-01
100  9.9000000000000D-01  6.5016116211051D-01 -1.4570398722656D-01
101  1.0000000000000D+00  5.5173322937016D-01 -1.6730687001497D-01
102  1.0100000000000D+00  4.5068957261035D-01 -1.8784319200016D-01
103  1.0200000000000D+00  3.4769537885019D-01 -2.0726935380790D-01
104  1.0300000000000D+00  2.4344316324953D-01 -2.2554210962571D-01
105  1.0400000000000D+00  1.3864635236111D-01 -2.4261905147941D-01
106  1.0500000000000D+00  3.4032497986538D-02 -2.5845912812395D-01
107  1.0600000000000D+00 -6.9663803755404D-02 -2.7302319176262D-01
108  1.0700000000000D+00 -1.7170820872194D-01 -2.8627456527197D-01
109  1.0800000000000D+00 -2.7137405277089D-01 -2.9817962212844D-01
110  1.0900000000000D+00 -3.6794982495572D-01 -3.0870837088192D-01
111  1.1000000000000D+00 -4.6074659720042D-01 -3.1783503575235D-01
112  1.1100000000000D+00 -5.4910532086631D-01 -3.2553862477309D-01
113  1.1200000000000D+00 -6.3240390088118D-01 -3.3180347688123D-01
114  1.1300000000000D+00 -7.1006395992102D-01 -3.3661977947901D-01
115  1.1400000000000D+00 -7.8155720656790D-01 -3.3998404809663D-01
116  1.1500000000000D+00 -8.4641132617211D-01 -3.4189956020717D-01
117  1.1600000000000D+00 -9.0421531714829D-01 -3.4237673561543D-01
118  1.1700000000000D+00 -9.5462420238364D-01 -3.4143345649592D-01
119  1.1800000000000D+00 -9.9736304944888D-01 -3.3909532053369D-01
120  1.1900000000000D+00 -1.0322302442772D+00 -3.3539582168180D-01
121  1.2000000000000D+00 -1.0590999702124D+00 -3.3037645376212D-01
122  1.2100000000000D+00 -1.0779238523729D+00 -3.2408673292416D-01
123  1.2200000000000D+00 -1.0887317377217D+00 -3.1658413600757D-01
124  1.2300000000000D+00 -1.0916315932909D+00 -3.0793395305720D-01
125  1.2400000000000D+00 -1.0868085144306D+00 -2.9820905318375D-01
126  1.2500000000000D+00 -1.0745228423414D+00 -2.8748956369883D-01
127  1.2600000000000D+00 -1.0551074082574D+00 -2.7586246427859D-01
128  1.2700000000000D+00 -1.0289639290951D+00 -2.6342109866683D-01
129  1.2800000000000D+00 -9.9655858448771D-01 -2.5026460693960D-01
130  1.2900000000000D+00 -9.5841682696377D-01 -2.3649728357147D-01
131  1.3000000000000D+00 -9.1511747988965D-01 -2.2222786684028D-01
132  1.3100000000000D+00 -8.6728618326745D-01 -2.0756876565877D-01
133  1.3200000000000D+00 -8.1558826809331D-01 -1.9263523203039D-01
134  1.3300000000000D+00 -7.6072113725841D-01 -1.7754448705185D-01
135  1.3400000000000D+00 -7.0340623997343D-01 -1.6241480930177D-01
136  1.3500000000000D+00 -6.4438073895410D-01 -1.4736459572099D-01
137  1.3600000000000D+00 -5.8438896456169D-01 -1.3251140457007D-01
138  1.3700000000000D+00 -5.2417376189033D-01 -1.1797099126466D-01
139  1.3800000000000D+00 -4.6446783456385D-01 -1.0385634767100D-01
140  1.3900000000000D+00 -4.0598519157314D-01 -9.0276755698728D-02
141  1.4000000000000D+00 -3.4941280426045D-01 -7.7336866127411D-02
142  1.4100000000000D+00 -2.9540257438715D-01 -6.5135812963638D-02
143  1.4200000000000D+00 -2.4456372260352D-01 -5.3766374491563D-02
144  1.4300000000000D+00 -1.9745568280032D-01 -4.3314189743277D-02
145  1.4400000000000D+00 -1.5458160917928D-01 -3.3857041298719D-02
146  1.4500000000000D+00 -1.1638257072413D-01 -2.5464212039034D-02
147  1.4600000000000D+00 -8.3232513486805D-02 -1.8195924057411D-02
148  1.4700000000000D+00 -5.5455158277817D-02 -1.2107430870235D-02
149  1.4800000000000D+00 -3.3170654934973D-02 -7.2164976362117D-03
150  1.4900000000000D+00 -1.6600431205887D-02 -3.5688135910817D-03
151  1.5000000000000D+00 -6.3206204460591D-03 -1.2879169764426D-03
152  1.5100000000000D+00 -1.5634352667141D-03 -2.2877727450562D-04
153  1.5200000000000D+00 -7.4708725988779D-05  5.8277952818582D-05
154  1.5300000000000D+00  2.6774424666836D-05  1.4776264260879D-05
155  1.5400000000000D+00 -5.8660348525471D-05 -2.4974708980419D-05
156  1.5500000000000D+00 -5.6770695950587D-07 -2.1760912175535D-07
157  1.5600000000000D+00  7.1050583435014D-06  4.1736328848505D-06
158  1.5700000000000D+00  5.9202037599103D-07  4.9051639368498D-08
159  1.5800000000000D+00  2.0966515510734D-06  1.7371732449664D-07
160  1.5900000000000D+00  0.0000000000000D+00  0.0000000000000D+00
161  1.6000000000000D+00  0.0000000000000D+00  0.0000000000000D+00
162  1.6100000000000D+00  0.0000000000000D+00  0.0000000000000D+00
163  1.6200000000000D+00  0.0000000000000D+00  0.0000000000000D+00
164  1.6300000000000D+00  0.0000000000000D+00  0.0000000000000D+00
165  1.6400000000000D+00  0.0000000000000D+00  0.0000000000000D+00
166  1.6500000000000D+00  0.0000000000000D+00  0.0000000000000D+00
167  1.6600000000000D+00  0.0000000000000D+00  0.0000000000000D+00
168  1.6700000000000D+00  0.0000000000000D+00  0.0000000000000D+00
169  1.6800000000000D+00  0.0000000000000D+00  0.0000000000000D+00
170  1.6900000000000D+00  0.0000000000000D+00  0.0000000000000D+00
171  1.7000000000000D+00  0.0000000000000D+00  0.0000000000000D+00
172  1.7100000000000D+00  0.0000000000000D+00  0.0000000000000D+00
173  1.7200000000000D+00  0.0000000000000D+00  0.0000000000000D+00
174  1.7300000000000D+00  0.0000000000000D+00  0.0000000000000D+00
175  1.7400000000000D+00  0.0000000000000D+00  0.0000000000000D+00
176  1.7500000000000D+00  0.0000000000000D+00  0.0000000000000D+00
177  1.7600000000000D+00  0.0000000000000D+00  0.0000000000000D+00
178  1.7700000000000D+00  0.0000000000000D+00  0.0000000000000D+00
179  1.7800000000000D+00  0.0000000000000D+00  0.0000000000000D+00
180  1.7900000000000D+00  0.0000000000000D+00  0.0000000000000D+00
181  1.8000000000000D+00  0.0000000000000D+00  0.0000000000000D+00
182  1.8100000000000D+00  0.0000000000000D+00  0.0000000000000D+00
183  1.8200000000000D+00  0.0000000000000D+00  0.0000000000000D+00
184  1.8300000000000D+00  0.0000000000000D+00  0.0000000000000D+00
185  1.8400000000000D+00  0.0000000000000D+00  0.0000000000000D+00
186  1.8500000000000D+00  0.0000000000000D+00  0.0000000000000D+00
187  1.8600000000000D+00  0.0000000000000D+00  0.0000000000000D+00
188  1.8700000000000D+00  0.0000000000000D+00  0.0000000000000D+00
189  1.8800000000000D+00  0.0000000000000D+00  0.0000000000000D+00
190  1.8900000000000D+00  0.0000000000000D+00  0.0000000000000D+00
191  1.9000000000000D+00  0.0000000000000D+00  0.0000000000000D+00
192  1.9100000000000D+00  0.0000000000000D+00  0.0000000000000D+00
193  1.9200000000000D+00  0.0000000000000D+00  0.0000000000000D+00
194  1.9300000000000D+00  0.0000000000000D+00  0.0000000000000D+00
195  1.9400000000000D+00  0.0000000000000D+00  0.0000000000000D+00
196  1.9500000000000D+00  0.0000000000000D+00  0.0000000000000D+00
197  1.9600000000000D+00  0.0000000000000D+00  0.0000000000000D+00
198  1.9700000000000D+00  0.0000000000000D+00  0.0000000000000D+00
199  1.9800000000000D+00  0.0000000000000D+00  0.0000000000000D+00
200  1.9900000000000D+00  0.0000000000000D+00  0.0000000000000D+00
201  2.0000000000000D+00  0.0000000000000D+00  0.0000000000000D+00
202  2.0100000000000D+00  0.0000000000000D+00  0.0000000000000D+00
203  2.0200000000000D+00  0.0000000000000D+00  0.0000000000000D+00
204  2.0300000000000D+00  0.0000000000000D+00  0.0000000000000D+00
205  2.0400000000000D+00  0.0000000000000D+00  0.0000000000000D+00
206  2.0500000000000D+00  0.0000000000000D+00  0.0000000000000D+00
207  2.0600000000000D+00  0.0000000000000D+00  0.0000000000000D+00
208  2.0700000000000D+00  0.0000000000000D+00  0.0000000000000D+00
209  2.0800000000000D+00  0.0000000000000D+00  0.0000000000000D+00
210  2.0900000000000D+00  0.0000000000000D+00  0.0000000000000D+00
211  2.1000000000000D+00  0.0000000000000D+00  0.0000000000000D+00
212  2.1100000000000D+00  0.0000000000000D+00  0.0000000000000D+00
213  2.1200000000000D+00  0.0000000000000D+00  0.0000000000000D+00
214  2.1300000000000D+00  0.0000000000000D+00  0.0000000000000D+00
215  2.1400000000000D+00  0.0000000000000D+00  0.0000000000000D+00
216  2.1500000000000D+00  0.0000000000000D+00  0.0000000000000D+00
217  2.1600000000000D+00  0.0000000000000D+00  0.0000000000000D+00
218  2.1700000000000D+00  0.0000000000000D+00  0.0000000000000D+00
219  2.1800000000000D+00  0.0000000000000D+00  0.0000000000000D+00
220  2.1900000000000D+00  0.0000000000000D+00  0.0000000000000D+00
221  2.2000000000000D+00  0.0000000000000D+00  0.0000000000000D+00
222  2.2100000000000D+00  0.0000000000000D+00  0.0000000000000D+00
223  2.2200000000000D+00  0.0000000000000D+00  0.0000000000000D+00
224  2.2300000000000D+00  0.0000000000000D+00  0.0000000000000D+00
225  2.2400000000000D+00  0.0000000000000D+00  0.0000000000000D+00
226  2.2500000000000D+00  0.0000000000000D+00  0.0000000000000D+00
227  2.2600000000000D+00  0.0000000000000D+00  0.0000000000000D+00
228  2.2700000000000D+00  0.0000000000000D+00  0.0000000000000D+00
229  2.2800000000000D+00  0.0000000000000D+00  0.0000000000000D+00
230  2.2900000000000D+00  0.0000000000000D+00  0.0000000000000D+00
231  2.3000000000000D+00  0.0000000000000D+00  0.0000000000000D+00
232  2.3100000000000D+00  0.0000000000000D+00  0.0000000000000D+00
233  2.3200000000000D+00  0.0000000000000D+00  0.0000000000000D+00
234  2.3300000000000D+00  0.0000000000000D+00  0.0000000000000D+00
235  2.3400000000000D+00  0.0000000000000D+00  0.0000000000000D+00
236  2.3500000000000D+00  0.0000000000000D+00  0.0000000000000D+00
237  2.3600000000000D+00  0.0000000000000D+00  0.0000000000000D+00
238  2.3700000000000D+00  0.0000000000000D+00  0.0000000000000D+00
239  2.3800000000000D+00  0.0000000000000D+00  0.0000000000000D+00
240  2.3900000000000D+00  0.0000000000000D+00  0.0000000000000D+00
241  2.4000000000000D+00  0.0000000000000D+00  0.0000000000000D+00
242  2.4100000000000D+00  0.0000000000000D+00  0.0000000000000D+00
243  2.4200000000000D+00  0.0000000000000D+00  0.0000000000000D+00
244  2.4300000000000D+00  0.0000000000000D+00  0.0000000000000D+00
245  2.4400000000000D+00  0.0000000000000D+00  0.0000000000000D+00
246  2.4500000000000D+00  0.0000000000000D+00  0.0000000000000D+00
247  2.4600000000000D+00  0.0000000000000D+00  0.0000000000000D+00
248  2.4700000000000D+00  0.0000000000000D+00  0.0000000000000D+00
249  2.4800000000000D+00  0.0000000000000D+00  0.0000000000000D+00
250  2.4900000000000D+00  0.0000000000000D+00  0.0000000000000D+00
251  2.5000000000000D+00  0.0000000000000D+00  0.0000000000000D+00
252  2.5100000000000D+00  0.0000000000000D+00  0.0000000000000D+00
253  2.5200000000000D+00  0.0000000000000D+00  0.0000000000000D+00
254  2.5300000000000D+00  0.0000000000000D+00  0.0000000000000D+00
255  2.5400000000000D+00  0.0000000000000D+00  0.0000000000000D+00
256  2.5500000000000D+00  0.0000000000000D+00  0.0000000000000D+00
257  2.5600000000000D+00  0.0000000000000D+00  0.0000000000000D+00
258  2.5700000000000D+00  0.0000000000000D+00  0.0000000000000D+00
259  2.5800000000000D+00  0.0000000000000D+00  0.0000000000000D+00
260  2.5900000000000D+00  0.0000000000000D+00  0.0000000000000D+00
261  2.6000000000000D+00  0.0000000000000D+00  0.0000000000000D+00
262  2.6100000000000D+00  0.0000000000000D+00  0.0000000000000D+00
263  2.6200000000000D+00  0.0000000000000D+00  0.0000000000000D+00
264  2.6300000000000D+00  0.0000000000000D+00  0.0000000000000D+00
265  2.6400000000000D+00  0.0000000000000D+00  0.0000000000000D+00
266  2.6500000000000D+00  0.0000000000000D+00  0.0000000000000D+00
267  2.6600000000000D+00  0.0000000000000D+00  0.0000000000000D+00
268  2.6700000000000D+00  0.0000000000000D+00  0.0000000000000D+00
269  2.6800000000000D+00  0.0000000000000D+00  0.0000000000000D+00
270  2.6900000000000D+00  0.0000000000000D+00  0.0000000000000D+00
271  2.7000000000000D+00  0.0000000000000D+00  0.0000000000000D+00
272  2.7100000000000D+00  0.0000000000000D+00  0.0000000000000D+00
273  2.7200000000000D+00  0.0000000000000D+00  0.0000000000000D+00
274  2.7300000000000D+00  0.0000000000000D+00  0.0000000000000D+00
275  2.7400000000000D+00  0.0000000000000D+00  0.0000000000000D+00
276  2.7500000000000D+00  0.0000000000000D+00  0.0000000000000D+00
277  2.7600000000000D+00  0.0000000000000D+00  0.0000000000000D+00
278  2.7700000000000D+00  0.0000000000000D+00  0.0000000000000D+00
279  2.7800000000000D+00  0.0000000000000D+00  0.0000000000000D+00
280  2.7900000000000D+00  0.0000000000000D+00  0.0000000000000D+00
281  2.8000000000000D+00  0.0000000000000D+00  0.0000000000000D+00
282  2.8100000000000D+00  0.0000000000000D+00  0.0000000000000D+00
283  2.8200000000000D+00  0.0000000000000D+00  0.0000000000000D+00
284  2.8300000000000D+00  0.0000000000000D+00  0.0000000000000D+00
285  2.8400000000000D+00  0.0000000000000D+00  0.0000000000000D+00
286  2.8500000000000D+00  0.0000000000000D+00  0.0000000000000D+00
287  2.8600000000000D+00  0.0000000000000D+00  0.0000000000000D+00
288  2.8700000000000D+00  0.0000000000000D+00  0.0000000000000D+00
289  2.8800000000000D+00  0.0000000000000D+00  0.0000000000000D+00
290  2.8900000000000D+00  0.0000000000000D+00  0.0000000000000D+00
291  2.9000000000000D+00  0.0000000000000D+00  0.0000000000000D+00
292  2.9100000000000D+00  0.0000000000000D+00  0.0000000000000D+00
293  2.9200000000000D+00  0.0000000000000D+00  0.0000000000000D+00
294  2.9300000000000D+00  0.0000000000000D+00  0.0000000000000D+00
295  2.9400000000000D+00  0.0000000000000D+00  0.0000000000000D+00
296  2.9500000000000D+00  0.0000000000000D+00  0.0000000000000D+00
297  2.9600000000000D+00  0.0000000000000D+00  0.0000000000000D+00
298  2.9700000000000D+00  0.0000000000000D+00  0.0000000000000D+00
299  2.9800000000000D+00  0.0000000000000D+00  0.0000000000000D+00
300  2.9900000000000D+00  0.0000000000000D+00  0.0000000000000D+00
301  3.0000000000000D+00  0.0000000000000D+00  0.0000000000000D+00
302  3.0100000000000D+00  0.0000000000000D+00  0.0000000000000D+00
303  3.0200000000000D+00  0.0000000000000D+00  0.0000000000000D+00
304  3.0300000000000D+00  0.0000000000000D+00  0.0000000000000D+00
305  3.0400000000000D+00  0.0000000000000D+00  0.0000000000000D+00
306  3.0500000000000D+00  0.0000000000000D+00  0.0000000000000D+00
307  3.0600000000000D+00  0.0000000000000D+00  0.0000000000000D+00
308  3.0700000000000D+00  0.0000000000000D+00  0.0000000000000D+00
309  3.0800000000000D+00  0.0000000000000D+00  0.0000000000000D+00
310  3.0900000000000D+00  0.0000000000000D+00  0.0000000000000D+00
311  3.1000000000000D+00  0.0000000000000D+00  0.0000000000000D+00
312  3.1100000000000D+00  0.0000000000000D+00  0.0000000000000D+00
313  3.1200000000000D+00  0.0000000000000D+00  0.0000000000000D+00
314  3.1300000000000D+00  0.0000000000000D+00  0.0000000000000D+00
315  3.1400000000000D+00  0.0000000000000D+00  0.0000000000000D+00
316  3.1500000000000D+00  0.0000000000000D+00  0.0000000000000D+00
317  3.1600000000000D+00  0.0000000000000D+00  0.0000000000000D+00
318  3.1700000000000D+00  0.0000000000000D+00  0.0000000000000D+00
319  3.1800000000000D+00  0.0000000000000D+00  0.0000000000000D+00
320  3.1900000000000D+00  0.0000000000000D+00  0.0000000000000D+00
321  3.2000000000000D+00  0.0000000000000D+00  0.0000000000000D+00
322  3.2100000000000D+00  0.0000000000000D+00  0.0000000000000D+00
323  3.2200000000000D+00  0.0000000000000D+00  0.0000000000000D+00
324  3.2300000000000D+00  0.0000000000000D+00  0.0000000000000D+00
325  3.2400000000000D+00  0.0000000000000D+00  0.0000000000000D+00
326  3.2500000000000D+00  0.0000000000000D+00  0.0000000000000D+00
327  3.2600000000000D+00  0.0000000000000D+00  0.0000000000000D+00
328  3.2700000000000D+00  0.0000000000000D+00  0.0000000000000D+00
329  3.2800000000000D+00  0.0000000000000D+00  0.0000000000000D+00
330  3.2900000000000D+00  0.0000000000000D+00  0.0000000000000D+00
331  3.3000000000000D+00  0.0000000000000D+00  0.0000000000000D+00
332  3.3100000000000D+00  0.0000000000000D+00  0.0000000000000D+00
333  3.3200000000000D+00  0.0000000000000D+00  0.0000000000000D+00
334  3.3300000000000D+00  0.0000000000000D+00  0.0000000000000D+00
335  3.3400000000000D+00  0.0000000000000D+00  0.0000000000000D+00
336  3.3500000000000D+00  0.0000000000000D+00  0.0000000000000D+00
337  3.3600000000000D+00  0.0000000000000D+00  0.0000000000000D+00
338  3.3700000000000D+00  0.0000000000000D+00  0.0000000000000D+00
339  3.3800000000000D+00  0.0000000000000D+00  0.0000000000000D+00
340  3.3900000000000D+00  0.0000000000000D+00  0.0000000000000D+00
341  3.4000000000000D+00  0.0000000000000D+00  0.0000000000000D+00
342  3.4100000000000D+00  0.0000000000000D+00  0.0000000000000D+00
343  3.4200000000000D+00  0.0000000000000D+00  0.0000000000000D+00
344  3.4300000000000D+00  0.0000000000000D+00  0.0000000000000D+00
345  3.4400000000000D+00  0.0000000000000D+00  0.0000000000000D+00
346  3.4500000000000D+00  0.0000000000000D+00  0.0000000000000D+00
347  3.4600000000000D+00  0.0000000000000D+00  0.0000000000000D+00
348  3.4700000000000D+00  0.0000000000000D+00  0.0000000000000D+00
349  3.4800000000000D+00  0.0000000000000D+00  0.0000000000000D+00
350  3.4900000000000D+00  0.0000000000000D+00  0.0000000000000D+00
351  3.5000000000000D+00  0.0000000000000D+00  0.0000000000000D+00
352  3.5100000000000D+00  0.0000000000000D+00  0.0000000000000D+00
353  3.5200000000000D+00  0.0000000000000D+00  0.0000000000000D+00
354  3.5300000000000D+00  0.0000000000000D+00  0.0000000000000D+00
355  3.5400000000000D+00  0.0000000000000D+00  0.0000000000000D+00
356  3.5500000000000D+00  0.0000000000000D+00  0.0000000000000D+00
357  3.5600000000000D+00  0.0000000000000D+00  0.0000000000000D+00
358  3.5700000000000D+00  0.0000000000000D+00  0.0000000000000D+00
359  3.5800000000000D+00  0.0000000000000D+00  0.0000000000000D+00
360  3.5900000000000D+00  0.0000000000000D+00  0.0000000000000D+00
361  3.6000000000000D+00  0.0000000000000D+00  0.0000000000000D+00
362  3.6100000000000D+00  0.0000000000000D+00  0.0000000000000D+00
363  3.6200000000000D+00  0.0000000000000D+00  0.0000000000000D+00
364  3.6300000000000D+00  0.0000000000000D+00  0.0000000000000D+00
365  3.6400000000000D+00  0.0000000000000D+00  0.0000000000000D+00
366  3.6500000000000D+00  0.0000000000000D+00  0.0000000000000D+00
367  3.6600000000000D+00  0.0000000000000D+00  0.0000000000000D+00
368  3.6700000000000D+00  0.0000000000000D+00  0.0000000000000D+00
369  3.6800000000000D+00  0.0000000000000D+00  0.0000000000000D+00
370  3.6900000000000D+00  0.0000000000000D+00  0.0000000000000D+00
371  3.7000000000000D+00  0.0000000000000D+00  0.0000000000000D+00
372  3.7100000000000D+00  0.0000000000000D+00  0.0000000000000D+00
373  3.7200000000000D+00  0.0000000000000D+00  0.0000000000000D+00
374  3.7300000000000D+00  0.0000000000000D+00  0.0000000000000D+00
375  3.7400000000000D+00  0.0000000000000D+00  0.0000000000000D+00
376  3.7500000000000D+00  0.0000000000000D+00  0.0000000000000D+00
377  3.7600000000000D+00  0.0000000000000D+00  0.0000000000000D+00
378  3.7700000000000D+00  0.0000000000000D+00  0.0000000000000D+00
379  3.7800000000000D+00  0.0000000000000D+00  0.0000000000000D+00
380  3.7900000000000D+00  0.0000000000000D+00  0.0000000000000D+00
381  3.8000000000000D+00  0.0000000000000D+00  0.0000000000000D+00
382  3.8100000000000D+00  0.0000000000000D+00  0.0000000000000D+00
383  3.8200000000000D+00  0.0000000000000D+00  0.0000000000000D+00
384  3.8300000000000D+00  0.0000000000000D+00  0.0000000000000D+00
385  3.8400000000000D+00  0.0000000000000D+00  0.0000000000000D+00
386  3.8500000000000D+00  0.0000000000000D+00  0.0000000000000D+00
387  3.8600000000000D+00  0.0000000000000D+00  0.0000000000000D+00
388  3.8700000000000D+00  0.0000000000000D+00  0.0000000000000D+00
389  3.8800000000000D+00  0.0000000000000D+00  0.0000000000000D+00
390  3.8900000000000D+00  0.0000000000000D+00  0.0000000000000D+00
391  3.9000000000000D+00  0.0000000000000D+00  0.0000000000000D+00
392  3.9100000000000D+00  0.0000000000000D+00  0.0000000000000D+00
393  3.9200000000000D+00  0.0000000000000D+00  0.0000000000000D+00
394  3.9300000000000D+00  0.0000000000000D+00  0.0000000000000D+00
395  3.9400000000000D+00  0.0000000000000D+00  0.0000000000000D+00
396  3.9500000000000D+00  0.0000000000000D+00  0.0000000000000D+00
397  3.9600000000000D+00  0.0000000000000D+00  0.0000000000000D+00
398  3.9700000000000D+00  0.0000000000000D+00  0.0000000000000D+00
399  3.9800000000000D+00  0.0000000000000D+00  0.0000000000000D+00
400  3.9900000000000D+00  0.0000000000000D+00  0.0000000000000D+00
401  4.0000000000000D+00  0.0000000000000D+00  0.0000000000000D+00
402  4.0100000000000D+00  0.0000000000000D+00  0.0000000000000D+00
403  4.0200000000000D+00  0.0000000000000D+00  0.0000000000000D+00
404  4.0300000000000D+00  0.0000000000000D+00  0.0000000000000D+00
405  4.0400000000000D+00  0.0000000000000D+00  0.0000000000000D+00
406  4.0500000000000D+00  0.0000000000000D+00  0.0000000000000D+00
407  4.0600000000000D+00  0.0000000000000D+00  0.0000000000000D+00
408  4.0700000000000D+00  0.0000000000000D+00  0.0000000000000D+00
409  4.0800000000000D+00  0.0000000000000D+00  0.0000000000000D+00
410  4.0900000000000D+00  0.0000000000000D+00  0.0000000000000D+00
411  4.1000000000000D+00  0.0000000000000D+00  0.0000000000000D+00
412  4.1100000000000D+00  0.0000000000000D+00  0.0000000000000D+00
413  4.1200000000000D+00  0.0000000000000D+00  0.0000000000000D+00
414  4.1300000000000D+00  0.0000000000000D+00  0.0000000000000D+00
415  4.1400000000000D+00  0.0000000000000D+00  0.0000000000000D+00
416  4.1500000000000D+00  0.0000000000000D+00  0.0000000000000D+00
417  4.1600000000000D+00  0.0000000000000D+00  0.0000000000000D+00
418  4.1700000000000D+00  0.0000000000000D+00  0.0000000000000D+00
419  4.1800000000000D+00  0.0000000000000D+00  0.0000000000000D+00
420  4.1900000000000D+00  0.0000000000000D+00  0.0000000000000D+00
421  4.2000000000000D+00  0.0000000000000D+00  0.0000000000000D+00
422  4.2100000000000D+00  0.0000000000000D+00  0.0000000000000D+00
423  4.2200000000000D+00  0.0000000000000D+00  0.0000000000000D+00
424  4.2300000000000D+00  0.0000000000000D+00  0.0000000000000D+00
425  4.2400000000000D+00  0.0000000000000D+00  0.0000000000000D+00
426  4.2500000000000D+00  0.0000000000000D+00  0.0000000000000D+00
427  4.2600000000000D+00  0.0000000000000D+00  0.0000000000000D+00
428  4.2700000000000D+00  0.0000000000000D+00  0.0000000000000D+00
429  4.2800000000000D+00  0.0000000000000D+00  0.0000000000000D+00
430  4.2900000000000D+00  0.0000000000000D+00  0.0000000000000D+00
431  4.3000000000000D+00  0.0000000000000D+00  0.0000000000000D+00
432  4.3100000000000D+00  0.0000000000000D+00  0.0000000000000D+00
433  4.3200000000000D+00  0.0000000000000D+00  0.0000000000000D+00
434  4.3300000000000D+00  0.0000000000000D+00  0.0000000000000D+00
435  4.3400000000000D+00  0.0000000000000D+00  0.0000000000000D+00
436  4.3500000000000D+00  0.0000000000000D+00  0.0000000000000D+00
437  4.3600000000000D+00  0.0000000000000D+00  0.0000000000000D+00
438  4.3700000000000D+00  0.0000000000000D+00  0.0000000000000D+00
439  4.3800000000000D+00  0.0000000000000D+00  0.0000000000000D+00
440  4.3900000000000D+00  0.0000000000000D+00  0.0000000000000D+00
441  4.4000000000000D+00  0.0000000000000D+00  0.0000000000000D+00
442  4.4100000000000D+00  0.0000000000000D+00  0.0000000000000D+00
443  4.4200000000000D+00  0.0000000000000D+00  0.0000000000000D+00