P     ONCVPSP-3.3.0  r_core=   1.46089   1.55067   1.70594
15.0000      5.0000      180430    zatom,zion,pspd
8 -116133   2     4   600     0    pspcod,pspxc,lmax,lloc,mmax,r2well
5.99000000  5.00000000  0.00000000    rchrg fchrg qchrg
2     3     2     0    nproj
3     1           extension_switch
3     3     0    nprojso
0                         1.0641579977132D+00  6.7426529599550D+00
1  0.0000000000000D+00  4.3015252304546D-08 -1.7452769118798D-08
2  1.0000000000000D-02 -5.2894674921156D-02  5.5943632334175D-02
3  2.0000000000000D-02 -1.0451916901672D-01  1.1135073706192D-01
4  3.0000000000000D-02 -1.5363027598887D-01  1.6569574811921D-01
5  4.0000000000000D-02 -1.9903818073917D-01  2.1847479604280D-01
6  5.0000000000000D-02 -2.3963177163967D-01  2.6921599465005D-01
7  6.0000000000000D-02 -2.7440232425685D-01  3.1748906653285D-01
8  7.0000000000000D-02 -3.0246506541837D-01  3.6291410796185D-01
9  8.0000000000000D-02 -3.2307816952762D-01  4.0516931125042D-01
10  9.0000000000000D-02 -3.3565879116607D-01  4.4399748378076D-01
11  1.0000000000000D-01 -3.3979579823547D-01  4.7921122732645D-01
12  1.1000000000000D-01 -3.3525893697736D-01  5.1069666852744D-01
13  1.2000000000000D-01 -3.2200423282396D-01  5.3841566084093D-01
14  1.3000000000000D-01 -3.0017550772741D-01  5.6240640941517D-01
15  1.4000000000000D-01 -2.7010197384732D-01  5.8278250249039D-01
16  1.5000000000000D-01 -2.3229194365897D-01  5.9973036547526D-01
17  1.6000000000000D-01 -1.8742277606568D-01  6.1350518612813D-01
18  1.7000000000000D-01 -1.3632725535850D-01  6.2442539063725D-01
19  1.8000000000000D-01 -7.9976673306987D-02  6.3286578021504D-01
20  1.9000000000000D-01 -1.9460952801689D-02  6.3924946549310D-01
21  2.0000000000000D-01  4.4033787078564D-02  6.4403876096847D-01
22  2.1000000000000D-01  1.0924977118435D-01  6.4772522349964D-01
23  2.2000000000000D-01  1.7488371572090D-01  6.5081903693818D-01
24  2.3000000000000D-01  2.3961405056374D-01  6.5383795903652D-01
25  2.4000000000000D-01  3.0212866017563D-01  6.5729605650101D-01
26  2.5000000000000D-01  3.6115257414250D-01  6.6169245925480D-01
27  2.6000000000000D-01  4.1547503711861D-01  6.6750036551901D-01
28  2.7000000000000D-01  4.6397539827132D-01  6.7515652518806D-01
29  2.8000000000000D-01  5.0564728197292D-01  6.8505142023374D-01
30  2.9000000000000D-01  5.3962053410682D-01  6.9752034768148D-01
31  3.0000000000000D-01  5.6518048131994D-01  7.1283559331119D-01
32  3.1000000000000D-01  5.8178409304045D-01  7.3119986297605D-01
33  3.2000000000000D-01  5.8907269707244D-01  7.5274111371790D-01
34  3.3000000000000D-01  5.8688096788872D-01  7.7750889916736D-01
35  3.4000000000000D-01  5.7524198102778D-01  8.0547231359535D-01
36  3.5000000000000D-01  5.5438820580260D-01  8.3651958701897D-01
37  3.6000000000000D-01  5.2474839028375D-01  8.7045935059454D-01
38  3.7000000000000D-01  4.8694037560788D-01  9.0702355780788D-01
39  3.8000000000000D-01  4.4175995942592D-01  9.4587201337096D-01
40  3.9000000000000D-01  3.9016600909097D-01  9.8659842892385D-01
41  4.0000000000000D-01  3.3326210236171D-01  1.0287378932835D+00
42  4.1000000000000D-01  2.7227504541382D-01  1.0717756157055D+00
43  4.2000000000000D-01  2.0853068333768D-01  1.1151567740263D+00
44  4.3000000000000D-01  1.4342747572011D-01  1.1582972761812D+00
45  4.4000000000000D-01  7.8408358174118D-02  1.2005952239149D+00
46  4.5000000000000D-01  1.4931448783062D-02  1.2414428519488D+00
47  4.6000000000000D-01 -4.5559814450469D-02  1.2802387047524D+00
48  4.7000000000000D-01 -1.0166650351318D-01  1.3163998066461D+00
49  4.8000000000000D-01 -1.5206339241469D-01  1.3493735793821D+00
50  4.9000000000000D-01 -1.9552691460931D-01  1.3786492646759D+00
51  5.0000000000000D-01 -2.3096130954820D-01  1.4037686173433D+00
52  5.1000000000000D-01 -2.5742241424230D-01  1.4243356476137D+00
53  5.2000000000000D-01 -2.7413859894119D-01  1.4400252086059D+00
54  5.3000000000000D-01 -2.8052839951813D-01  1.4505902465384D+00
55  5.4000000000000D-01 -2.7621446194484D-01  1.4558675566127D+00
56  5.5000000000000D-01 -2.6103348518998D-01  1.4557819161986D+00
57  5.6000000000000D-01 -2.3504192635982D-01  1.4503484982996D+00
58  5.7000000000000D-01 -1.9851731499924D-01  1.4396735019223D+00
59  5.8000000000000D-01 -1.5195510972655D-01  1.4239529709129D+00
60  5.9000000000000D-01 -9.6061119117536D-02  1.4034698087944D+00
61  6.0000000000000D-01 -3.1739597110209D-02  1.3785890329653D+00
62  6.1000000000000D-01  3.9922789286523D-02  1.3497513471361D+00
63  6.2000000000000D-01  1.1767683878939D-01  1.3174651447407D+00
64  6.3000000000000D-01  2.0013418060916D-01  1.2822970883052D+00
65  6.4000000000000D-01  2.8579369260164D-01  1.2448614390611D+00
66  6.5000000000000D-01  3.7307047577343D-01  1.2058083373298D+00
67  6.6000000000000D-01  4.6032683301192D-01  1.1658112566797D+00
68  6.7000000000000D-01  5.4590465551602D-01  1.1255538730073D+00
69  6.8000000000000D-01  6.2815858723391D-01  1.0857166033111D+00
70  6.9000000000000D-01  7.0548931664470D-01  1.0469630776110D+00
71  7.0000000000000D-01  7.7637633701058D-01  1.0099268109921D+00
72  7.1000000000000D-01  8.3940952079026D-01  9.7519834110586D-01
73  7.2000000000000D-01  8.9331887141501D-01  9.4331308957512D-01
74  7.3000000000000D-01  9.3700184586373D-01  9.1474019370761D-01
75  7.4000000000000D-01  9.6954768374380D-01  8.8987253800239D-01
76  7.5000000000000D-01  9.9025823230038D-01  8.6901819336917D-01
77  7.6000000000000D-01  9.9866482108451D-01  8.5239344611666D-01
78  7.7000000000000D-01  9.9454081305783D-01  8.4011756934809D-01
79  7.8000000000000D-01  9.7790954062886D-01  8.3220945645748D-01
80  7.9000000000000D-01  9.4904742248723D-01  8.2858620116492D-01
81  8.0000000000000D-01  9.0848214948690D-01  8.2906367122308D-01
82  8.1000000000000D-01  8.5698592306852D-01  8.3335908444059D-01
83  8.2000000000000D-01  7.9556382601941D-01  8.4109555672233D-01
84  8.3000000000000D-01  7.2543750089422D-01  8.5180855317203D-01
85  8.4000000000000D-01  6.4802440428991D-01  8.6495413569312D-01
86  8.5000000000000D-01  5.6491299356221D-01  8.7991886469924D-01
87  8.6000000000000D-01  4.7783428473727D-01  8.9603117921274D-01
88  8.7000000000000D-01  3.8863029467236D-01  9.1257404945331D-01
89  8.8000000000000D-01  2.9921994545978D-01  9.2879866960388D-01
90  8.9000000000000D-01  2.1156306332067D-01  9.4393893632657D-01
91  9.0000000000000D-01  1.2762314667984D-01  9.5722644124272D-01
92  9.1000000000000D-01  4.9329607843533D-02  9.6790569335641D-01
93  9.2000000000000D-01 -2.1459790941305D-02  9.7524928055998D-01
94  9.3000000000000D-01 -8.2995583690880D-02  9.7857267808062D-01
95  9.4000000000000D-01 -1.3367161714384D-01  9.7724841606968D-01
96  9.5000000000000D-01 -1.7205775050108D-01  9.7071932840857D-01
97  9.6000000000000D-01 -1.9692959056473D-01  9.5851062035922D-01
98  9.7000000000000D-01 -2.0729466470650D-01  9.4024051278546D-01
99  9.8000000000000D-01 -2.0241449794314D-01  9.1562924624095D-01
100  9.9000000000000D-01 -1.8182213427645D-01  8.8450625785942D-01
101  1.0000000000000D+00 -1.4533472527507D-01  8.4681537724945D-01
102  1.0100000000000D+00 -9.3060900100970D-02  8.0261792427643D-01
103  1.0200000000000D+00 -2.5402727866944D-02  7.5209363052000D-01
104  1.0300000000000D+00  5.6947813127771D-02  6.9553934794236D-01
105  1.0400000000000D+00  1.5301784576059D-01  6.3336554818588D-01
106  1.0500000000000D+00  2.6156796187980D-01  5.6609065972571D-01
107  1.0600000000000D+00  3.8111172389722D-01  4.9433333104445D-01
108  1.0700000000000D+00  5.0993997899875D-01  4.1880274738016D-01
109  1.0800000000000D+00  6.4614956846827D-01  3.4028716751874D-01
110  1.0900000000000D+00  7.8767593265321D-01  2.5964088024819D-01
111  1.1000000000000D+00  9.3232903225710D-01  1.7776981240554D-01
112  1.1100000000000D+00  1.0778319379500D+00  9.5616048295714D-02
113  1.1200000000000D+00  1.2218613890034D+00  1.4141541089552D-02
114  1.1300000000000D+00  1.3620895787806D+00 -6.5688685711982D-02
115  1.1400000000000D+00  1.4962263973471D+00 -1.4292353740319D-01
116  1.1500000000000D+00  1.6220613439140D+00 -2.1664273111125D-01
117  1.1600000000000D+00  1.7375043278091D+00 -2.8597324831588D-01
118  1.1700000000000D+00  1.8406245951689D+00 -3.5010504964580D-01
119  1.1800000000000D+00  1.9296870347182D+00 -4.0830575110351D-01
120  1.1900000000000D+00  2.0031851762508D+00 -4.5993398487903D-01
121  1.2000000000000D+00  2.0598702548189D+00 -5.0445119168452D-01
122  1.2100000000000D+00  2.0987757631136D+00 -5.4143161132187D-01
123  1.2200000000000D+00  2.1192370105500D+00 -5.7057027666508D-01
124  1.2300000000000D+00  2.1209053083803D+00 -5.9168885670148D-01
125  1.2400000000000D+00  2.1037564833945D+00 -6.0473922769100D-01
126  1.2500000000000D+00  2.0680935057746D+00 -6.0980468481369D-01
127  1.2600000000000D+00  2.0145431836422D+00 -6.0709877378234D-01
128  1.2700000000000D+00  1.9440469491952D+00 -5.9696175100602D-01
129  1.2800000000000D+00  1.8578458313058D+00 -5.7985470899359D-01
130  1.2900000000000D+00  1.7574599190029D+00 -5.5635148800082D-01
131  1.3000000000000D+00  1.6446626461002D+00 -5.2712850534909D-01
132  1.3100000000000D+00  1.5214503077175D+00 -4.9295266620148D-01
133  1.3200000000000D+00  1.3900074105765D+00 -4.5466759658135D-01
134  1.3300000000000D+00  1.2526684282791D+00 -4.1317842708909D-01
135  1.3400000000000D+00  1.1118766491168D+00 -3.6943540260624D-01
136  1.3500000000000D+00  9.7014089064337D-01 -3.2441662832499D-01
137  1.3600000000000D+00  8.2999081785769D-01 -2.7911024733779D-01
138  1.3700000000000D+00  6.9393171930305D-01 -2.3449639243042D-01
139  1.3800000000000D+00  5.6439952270742D-01 -1.9152922564263D-01
140  1.3900000000000D+00  4.4371691108293D-01 -1.5111941089702D-01
141  1.4000000000000D+00  3.3405131214318D-01 -1.1411732998675D-01
142  1.4100000000000D+00  2.3738037175920D-01 -8.1299016026486D-02
143  1.4200000000000D+00  1.5549144476146D-01 -5.3363981147428D-02
144  1.4300000000000D+00  8.9493094092139D-02 -3.0765191933842D-02
145  1.4400000000000D+00  4.1090313579402D-02 -1.4146910745149D-02
146  1.4500000000000D+00  1.2383833824221D-02 -4.2748762710298D-03
147  1.4600000000000D+00  4.7754908233743D-04 -1.7448955959136D-04
148  1.4700000000000D+00 -1.3228810208439D-03  4.5137571876844D-04
149  1.4800000000000D+00  1.5563037813145D-04 -5.3226005960069D-05
150  1.4900000000000D+00  3.6814237707197D-04 -1.2607325672531D-04
151  1.5000000000000D+00 -5.4901817895844D-05  1.8731018581213D-05
152  1.5100000000000D+00 -5.0323308678263D-05  1.7179497850665D-05
153  1.5200000000000D+00 -4.0048515064261D-08  3.8391755985154D-08
154  1.5300000000000D+00 -1.6241655677571D-08  1.5569757844146D-08
155  1.5400000000000D+00  0.0000000000000D+00  0.0000000000000D+00
156  1.5500000000000D+00  0.0000000000000D+00  0.0000000000000D+00
157  1.5600000000000D+00  0.0000000000000D+00  0.0000000000000D+00
158  1.5700000000000D+00  0.0000000000000D+00  0.0000000000000D+00
159  1.5800000000000D+00  0.0000000000000D+00  0.0000000000000D+00
160  1.5900000000000D+00  0.0000000000000D+00  0.0000000000000D+00
161  1.6000000000000D+00  0.0000000000000D+00  0.0000000000000D+00
162  1.6100000000000D+00  0.0000000000000D+00  0.0000000000000D+00
163  1.6200000000000D+00  0.0000000000000D+00  0.0000000000000D+00
164  1.6300000000000D+00  0.0000000000000D+00  0.0000000000000D+00
165  1.6400000000000D+00  0.0000000000000D+00  0.0000000000000D+00
166  1.6500000000000D+00  0.0000000000000D+00  0.0000000000000D+00
167  1.6600000000000D+00  0.0000000000000D+00  0.0000000000000D+00
168  1.6700000000000D+00  0.0000000000000D+00  0.0000000000000D+00
169  1.6800000000000D+00  0.0000000000000D+00  0.0000000000000D+00
170  1.6900000000000D+00  0.0000000000000D+00  0.0000000000000D+00
171  1.7000000000000D+00  0.0000000000000D+00  0.0000000000000D+00
172  1.7100000000000D+00  0.0000000000000D+00  0.0000000000000D+00
173  1.7200000000000D+00  0.0000000000000D+00  0.0000000000000D+00
174  1.7300000000000D+00  0.0000000000000D+00  0.0000000000000D+00
175  1.7400000000000D+00  0.0000000000000D+00  0.0000000000000D+00
176  1.7500000000000D+00  0.0000000000000D+00  0.0000000000000D+00
177  1.7600000000000D+00  0.0000000000000D+00  0.0000000000000D+00
178  1.7700000000000D+00  0.0000000000000D+00  0.0000000000000D+00
179  1.7800000000000D+00  0.0000000000000D+00  0.0000000000000D+00
180  1.7900000000000D+00  0.0000000000000D+00  0.0000000000000D+00
181  1.8000000000000D+00  0.0000000000000D+00  0.0000000000000D+00
182  1.8100000000000D+00  0.0000000000000D+00  0.0000000000000D+00
183  1.8200000000000D+00  0.0000000000000D+00  0.0000000000000D+00
184  1.8300000000000D+00  0.0000000000000D+00  0.0000000000000D+00
185  1.8400000000000D+00  0.0000000000000D+00  0.0000000000000D+00
186  1.8500000000000D+00  0.0000000000000D+00  0.0000000000000D+00
187  1.8600000000000D+00  0.0000000000000D+00  0.0000000000000D+00
188  1.8700000000000D+00  0.0000000000000D+00  0.0000000000000D+00
189  1.8800000000000D+00  0.0000000000000D+00  0.0000000000000D+00
190  1.8900000000000D+00  0.0000000000000D+00  0.0000000000000D+00
191  1.9000000000000D+00  0.0000000000000D+00  0.0000000000000D+00
192  1.9100000000000D+00  0.0000000000000D+00  0.0000000000000D+00
193  1.9200000000000D+00  0.0000000000000D+00  0.0000000000000D+00
194  1.9300000000000D+00  0.0000000000000D+00  0.0000000000000D+00
195  1.9400000000000D+00  0.0000000000000D+00  0.0000000000000D+00
196  1.9500000000000D+00  0.0000000000000D+00  0.0000000000000D+00
197  1.9600000000000D+00  0.0000000000000D+00  0.0000000000000D+00
198  1.9700000000000D+00  0.0000000000000D+00  0.0000000000000D+00
199  1.9800000000000D+00  0.0000000000000D+00  0.0000000000000D+00
200  1.9900000000000D+00  0.0000000000000D+00  0.0000000000000D+00
201  2.0000000000000D+00  0.0000000000000D+00  0.0000000000000D+00
202  2.0100000000000D+00  0.0000000000000D+00  0.0000000000000D+00
203  2.0200000000000D+00  0.0000000000000D+00  0.0000000000000D+00
204  2.0300000000000D+00  0.0000000000000D+00  0.0000000000000D+00
205  2.0400000000000D+00  0.0000000000000D+00  0.0000000000000D+00
206  2.0500000000000D+00  0.0000000000000D+00  0.0000000000000D+00
207  2.0600000000000D+00  0.0000000000000D+00  0.0000000000000D+00
208  2.0700000000000D+00  0.0000000000000D+00  0.0000000000000D+00
209  2.0800000000000D+00  0.0000000000000D+00  0.0000000000000D+00
210  2.0900000000000D+00  0.0000000000000D+00  0.0000000000000D+00
211  2.1000000000000D+00  0.0000000000000D+00  0.0000000000000D+00
212  2.1100000000000D+00  0.0000000000000D+00  0.0000000000000D+00
213  2.1200000000000D+00  0.0000000000000D+00  0.0000000000000D+00
214  2.1300000000000D+00  0.0000000000000D+00  0.0000000000000D+00
215  2.1400000000000D+00  0.0000000000000D+00  0.0000000000000D+00
216  2.1500000000000D+00  0.0000000000000D+00  0.0000000000000D+00
217  2.1600000000000D+00  0.0000000000000D+00  0.0000000000000D+00
218  2.1700000000000D+00  0.0000000000000D+00  0.0000000000000D+00
219  2.1800000000000D+00  0.0000000000000D+00  0.0000000000000D+00
220  2.1900000000000D+00  0.0000000000000D+00  0.0000000000000D+00
221  2.2000000000000D+00  0.0000000000000D+00  0.0000000000000D+00
222  2.2100000000000D+00  0.0000000000000D+00  0.0000000000000D+00
223  2.2200000000000D+00  0.0000000000000D+00  0.0000000000000D+00
224  2.2300000000000D+00  0.0000000000000D+00  0.0000000000000D+00
225  2.2400000000000D+00  0.0000000000000D+00  0.0000000000000D+00
226  2.2500000000000D+00  0.0000000000000D+00  0.0000000000000D+00
227  2.2600000000000D+00  0.0000000000000D+00  0.0000000000000D+00
228  2.2700000000000D+00  0.0000000000000D+00  0.0000000000000D+00
229  2.2800000000000D+00  0.0000000000000D+00  0.0000000000000D+00
230  2.2900000000000D+00  0.0000000000000D+00  0.0000000000000D+00
231  2.3000000000000D+00  0.0000000000000D+00  0.0000000000000D+00
232  2.3100000000000D+00  0.0000000000000D+00  0.0000000000000D+00
233  2.3200000000000D+00  0.0000000000000D+00  0.0000000000000D+00
234  2.3300000000000D+00  0.0000000000000D+00  0.0000000000000D+00
235  2.3400000000000D+00  0.0000000000000D+00  0.0000000000000D+00
236  2.3500000000000D+00  0.0000000000000D+00  0.0000000000000D+00
237  2.3600000000000D+00  0.0000000000000D+00  0.0000000000000D+00
238  2.3700000000000D+00  0.0000000000000D+00  0.0000000000000D+00
239  2.3800000000000D+00  0.0000000000000D+00  0.0000000000000D+00
240  2.3900000000000D+00  0.0000000000000D+00  0.0000000000000D+00
241  2.4000000000000D+00  0.0000000000000D+00  0.0000000000000D+00
242  2.4100000000000D+00  0.0000000000000D+00  0.0000000000000D+00
243  2.4200000000000D+00  0.0000000000000D+00  0.0000000000000D+00
244  2.4300000000000D+00  0.0000000000000D+00  0.0000000000000D+00
245  2.4400000000000D+00  0.0000000000000D+00  0.0000000000000D+00
246  2.4500000000000D+00  0.0000000000000D+00  0.0000000000000D+00
247  2.4600000000000D+00  0.0000000000000D+00  0.0000000000000D+00
248  2.4700000000000D+00  0.0000000000000D+00  0.0000000000000D+00
249  2.4800000000000D+00  0.0000000000000D+00  0.0000000000000D+00
250  2.4900000000000D+00  0.0000000000000D+00  0.0000000000000D+00
251  2.5000000000000D+00  0.0000000000000D+00  0.0000000000000D+00
252  2.5100000000000D+00  0.0000000000000D+00  0.0000000000000D+00
253  2.5200000000000D+00  0.0000000000000D+00  0.0000000000000D+00
254  2.5300000000000D+00  0.0000000000000D+00  0.0000000000000D+00
255  2.5400000000000D+00  0.0000000000000D+00  0.0000000000000D+00
256  2.5500000000000D+00  0.0000000000000D+00  0.0000000000000D+00
257  2.5600000000000D+00  0.0000000000000D+00  0.0000000000000D+00
258  2.5700000000000D+00  0.0000000000000D+00  0.0000000000000D+00
259  2.5800000000000D+00  0.0000000000000D+00  0.0000000000000D+00
260  2.5900000000000D+00  0.0000000000000D+00  0.0000000000000D+00
261  2.6000000000000D+00  0.0000000000000D+00  0.0000000000000D+00
262  2.6100000000000D+00  0.0000000000000D+00  0.0000000000000D+00
263  2.6200000000000D+00  0.0000000000000D+00  0.0000000000000D+00
264  2.6300000000000D+00  0.0000000000000D+00  0.0000000000000D+00
265  2.6400000000000D+00  0.0000000000000D+00  0.0000000000000D+00
266  2.6500000000000D+00  0.0000000000000D+00  0.0000000000000D+00
267  2.6600000000000D+00  0.0000000000000D+00  0.0000000000000D+00
268  2.6700000000000D+00  0.0000000000000D+00  0.0000000000000D+00
269  2.6800000000000D+00  0.0000000000000D+00  0.0000000000000D+00
270  2.6900000000000D+00  0.0000000000000D+00  0.0000000000000D+00
271  2.7000000000000D+00  0.0000000000000D+00  0.0000000000000D+00
272  2.7100000000000D+00  0.0000000000000D+00  0.0000000000000D+00
273  2.7200000000000D+00  0.0000000000000D+00  0.0000000000000D+00
274  2.7300000000000D+00  0.0000000000000D+00  0.0000000000000D+00
275  2.7400000000000D+00  0.0000000000000D+00  0.0000000000000D+00
276  2.7500000000000D+00  0.0000000000000D+00  0.0000000000000D+00
277  2.7600000000000D+00  0.0000000000000D+00  0.0000000000000D+00
278  2.7700000000000D+00  0.0000000000000D+00  0.0000000000000D+00
279  2.7800000000000D+00  0.0000000000000D+00  0.0000000000000D+00
280  2.7900000000000D+00  0.0000000000000D+00  0.0000000000000D+00
281  2.8000000000000D+00  0.0000000000000D+00  0.0000000000000D+00
282  2.8100000000000D+00  0.0000000000000D+00  0.0000000000000D+00
283  2.8200000000000D+00  0.0000000000000D+00  0.0000000000000D+00
284  2.8300000000000D+00  0.0000000000000D+00  0.0000000000000D+00
285  2.8400000000000D+00  0.0000000000000D+00  0.0000000000000D+00
286  2.8500000000000D+00  0.0000000000000D+00  0.0000000000000D+00
287  2.8600000000000D+00  0.0000000000000D+00  0.0000000000000D+00
288  2.8700000000000D+00  0.0000000000000D+00  0.0000000000000D+00
289  2.8800000000000D+00  0.0000000000000D+00  0.0000000000000D+00
290  2.8900000000000D+00  0.0000000000000D+00  0.0000000000000D+00
291  2.9000000000000D+00  0.0000000000000D+00  0.0000000000000D+00
292  2.9100000000000D+00  0.0000000000000D+00  0.0000000000000D+00
293  2.9200000000000D+00  0.0000000000000D+00  0.0000000000000D+00
294  2.9300000000000D+00  0.0000000000000D+00  0.0000000000000D+00
295  2.9400000000000D+00  0.0000000000000D+00  0.0000000000000D+00
296  2.9500000000000D+00  0.0000000000000D+00  0.0000000000000D+00
297  2.9600000000000D+00  0.0000000000000D+00  0.0000000000000D+00
298  2.9700000000000D+00  0.0000000000000D+00  0.0000000000000D+00
299  2.9800000000000D+00  0.0000000000000D+00  0.0000000000000D+00
300  2.9900000000000D+00  0.0000000000000D+00  0.0000000000000D+00
301  3.0000000000000D+00  0.0000000000000D+00  0.0000000000000D+00
302  3.0100000000000D+00  0.0000000000000D+00  0.0000000000000D+00
303  3.0200000000000D+00  0.0000000000000D+00  0.0000000000000D+00
304  3.0300000000000D+00  0.0000000000000D+00  0.0000000000000D+00
305  3.0400000000000D+00  0.0000000000000D+00  0.0000000000000D+00
306  3.0500000000000D+00  0.0000000000000D+00  0.0000000000000D+00
307  3.0600000000000D+00  0.0000000000000D+00  0.0000000000000D+00
308  3.0700000000000D+00  0.0000000000000D+00  0.0000000000000D+00
309  3.0800000000000D+00  0.0000000000000D+00  0.0000000000000D+00
310  3.0900000000000D+00  0.0000000000000D+00  0.0000000000000D+00
311  3.1000000000000D+00  0.0000000000000D+00  0.0000000000000D+00
312  3.1100000000000D+00  0.0000000000000D+00  0.0000000000000D+00
313  3.1200000000000D+00  0.0000000000000D+00  0.0000000000000D+00
314  3.1300000000000D+00  0.0000000000000D+00  0.0000000000000D+00
315  3.1400000000000D+00  0.0000000000000D+00  0.0000000000000D+00
316  3.1500000000000D+00  0.0000000000000D+00  0.0000000000000D+00
317  3.1600000000000D+00  0.0000000000000D+00  0.0000000000000D+00
318  3.1700000000000D+00  0.0000000000000D+00  0.0000000000000D+00
319  3.1800000000000D+00  0.0000000000000D+00  0.0000000000000D+00
320  3.1900000000000D+00  0.0000000000000D+00  0.0000000000000D+00
321  3.2000000000000D+00  0.0000000000000D+00  0.0000000000000D+00
322  3.2100000000000D+00  0.0000000000000D+00  0.0000000000000D+00
323  3.2200000000000D+00  0.0000000000000D+00  0.0000000000000D+00
324  3.2300000000000D+00  0.0000000000000D+00  0.0000000000000D+00
325  3.2400000000000D+00  0.0000000000000D+00  0.0000000000000D+00
326  3.2500000000000D+00  0.0000000000000D+00  0.0000000000000D+00
327  3.2600000000000D+00  0.0000000000000D+00  0.0000000000000D+00
328  3.2700000000000D+00  0.0000000000000D+00  0.0000000000000D+00
329  3.2800000000000D+00  0.0000000000000D+00  0.0000000000000D+00
330  3.2900000000000D+00  0.0000000000000D+00  0.0000000000000D+00
331  3.3000000000000D+00  0.0000000000000D+00  0.0000000000000D+00
332  3.3100000000000D+00  0.0000000000000D+00  0.0000000000000D+00
333  3.3200000000000D+00  0.0000000000000D+00  0.0000000000000D+00
334  3.3300000000000D+00  0.0000000000000D+00  0.0000000000000D+00
335  3.3400000000000D+00  0.0000000000000D+00  0.0000000000000D+00
336  3.3500000000000D+00  0.0000000000000D+00  0.0000000000000D+00
337  3.3600000000000D+00  0.0000000000000D+00  0.0000000000000D+00
338  3.3700000000000D+00  0.0000000000000D+00  0.0000000000000D+00
339  3.3800000000000D+00  0.0000000000000D+00  0.0000000000000D+00
340  3.3900000000000D+00  0.0000000000000D+00  0.0000000000000D+00
341  3.4000000000000D+00  0.0000000000000D+00  0.0000000000000D+00
342  3.4100000000000D+00  0.0000000000000D+00  0.0000000000000D+00
343  3.4200000000000D+00  0.0000000000000D+00  0.0000000000000D+00
344  3.4300000000000D+00  0.0000000000000D+00  0.0000000000000D+00
345  3.4400000000000D+00  0.0000000000000D+00  0.0000000000000D+00
346  3.4500000000000D+00  0.0000000000000D+00  0.0000000000000D+00
347  3.4600000000000D+00  0.0000000000000D+00  0.0000000000000D+00
348  3.4700000000000D+00  0.0000000000000D+00  0.0000000000000D+00
349  3.4800000000000D+00  0.0000000000000D+00  0.0000000000000D+00
350  3.4900000000000D+00  0.0000000000000D+00  0.0000000000000D+00
351  3.5000000000000D+00  0.0000000000000D+00  0.0000000000000D+00
352  3.5100000000000D+00  0.0000000000000D+00  0.0000000000000D+00
353  3.5200000000000D+00  0.0000000000000D+00  0.0000000000000D+00
354  3.5300000000000D+00  0.0000000000000D+00  0.0000000000000D+00
355  3.5400000000000D+00  0.0000000000000D+00  0.0000000000000D+00
356  3.5500000000000D+00  0.0000000000000D+00  0.0000000000000D+00
357  3.5600000000000D+00  0.0000000000000D+00  0.0000000000000D+00
358  3.5700000000000D+00  0.0000000000000D+00  0.0000000000000D+00
359  3.5800000000000D+00  0.0000000000000D+00  0.0000000000000D+00
360  3.5900000000000D+00  0.0000000000000D+00  0.0000000000000D+00
361  3.6000000000000D+00  0.0000000000000D+00  0.0000000000000D+00
362  3.6100000000000D+00  0.0000000000000D+00  0.0000000000000D+00
363  3.6200000000000D+00  0.0000000000000D+00  0.0000000000000D+00
364  3.6300000000000D+00  0.0000000000000D+00  0.0000000000000D+00
365  3.6400000000000D+00  0.0000000000000D+00  0.0000000000000D+00
366  3.6500000000000D+00  0.0000000000000D+00  0.0000000000000D+00
367  3.6600000000000D+00  0.0000000000000D+00  0.0000000000000D+00
368  3.6700000000000D+00  0.0000000000000D+00  0.0000000000000D+00
369  3.6800000000000D+00  0.0000000000000D+00  0.0000000000000D+00
370  3.6900000000000D+00  0.0000000000000D+00  0.0000000000000D+00
371  3.7000000000000D+00  0.0000000000000D+00  0.0000000000000D+00
372  3.7100000000000D+00  0.0000000000000D+00  0.0000000000000D+00
373  3.7200000000000D+00  0.0000000000000D+00  0.0000000000000D+00
374  3.7300000000000D+00  0.0000000000000D+00  0.0000000000000D+00
375  3.7400000000000D+00  0.0000000000000D+00  0.0000000000000D+00
376  3.7500000000000D+00  0.0000000000000D+00  0.0000000000000D+00
377  3.7600000000000D+00  0.0000000000000D+00  0.0000000000000D+00
378  3.7700000000000D+00  0.0000000000000D+00  0.0000000000000D+00
379  3.7800000000000D+00  0.0000000000000D+00  0.0000000000000D+00
380  3.7900000000000D+00  0.0000000000000D+00  0.0000000000000D+00
381  3.8000000000000D+00  0.0000000000000D+00  0.0000000000000D+00
382  3.8100000000000D+00  0.0000000000000D+00  0.0000000000000D+00
383  3.8200000000000D+00  0.0000000000000D+00  0.0000000000000D+00
384  3.8300000000000D+00  0.0000000000000D+00  0.0000000000000D+00
385  3.8400000000000D+00  0.0000000000000D+00  0.0000000000000D+00
386  3.8500000000000D+00  0.0000000000000D+00  0.0000000000000D+00
387  3.8600000000000D+00  0.0000000000000D+00  0.0000000000000D+00
388  3.8700000000000D+00  0.0000000000000D+00  0.0000000000000D+00
389  3.8800000000000D+00  0.0000000000000D+00  0.0000000000000D+00
390  3.8900000000000D+00  0.0000000000000D+00  0.0000000000000D+00
391  3.9000000000000D+00  0.0000000000000D+00  0.0000000000000D+00
392  3.9100000000000D+00  0.0000000000000D+00  0.0000000000000D+00
393  3.9200000000000D+00  0.0000000000000D+00  0.0000000000000D+00
394  3.9300000000000D+00  0.0000000000000D+00  0.0000000000000D+00
395  3.9400000000000D+00  0.0000000000000D+00  0.0000000000000D+00
396  3.9500000000000D+00  0.0000000000000D+00  0.0000000000000D+00
397  3.9600000000000D+00  0.0000000000000D+00  0.0000000000000D+00
398  3.9700000000000D+00  0.0000000000000D+00  0.0000000000000D+00
399  3.9800000000000D+00  0.0000000000000D+00  0.0000000000000D+00
400  3.9900000000000D+00  0.0000000000000D+00  0.0000000000000D+00
401  4.0000000000000D+00  0.0000000000000D+00  0.0000000000000D+00
402  4.0100000000000D+00  0.0000000000000D+00  0.0000000000000D+00
403  4.0200000000000D+00  0.0000000000000D+00  0.0000000000000D+00
404  4.0300000000000D+00  0.0000000000000D+00  0.0000000000000D+00
405  4.0400000000000D+00  0.0000000000000D+00  0.0000000000000D+00
406  4.0500000000000D+00  0.0000000000000D+00  0.0000000000000D+00
407  4.0600000000000D+00  0.0000000000000D+00  0.0000000000000D+00
408  4.0700000000000D+00  0.0000000000000D+00  0.0000000000000D+00
409  4.0800000000000D+00  0.0000000000000D+00  0.0000000000000D+00
410  4.0900000000000D+00  0.0000000000000D+00  0.0000000000000D+00
411  4.1000000000000D+00  0.0000000000000D+00  0.0000000000000D+00
412  4.1100000000000D+00  0.0000000000000D+00  0.0000000000000D+00
413  4.1200000000000D+00  0.0000000000000D+00  0.0000000000000D+00
414  4.1300000000000D+00  0.0000000000000D+00  0.0000000000000D+00
415  4.1400000000000D+00  0.0000000000000D+00  0.0000000000000D+00
416  4.1500000000000D+00  0.0000000000000D+00  0.0000000000000D+00
417  4.1600000000000D+00  0.0000000000000D+00  0.0000000000000D+00
418  4.1700000000000D+00  0.0000000000000D+00  0.0000000000000D+00
419  4.1800000000000D+00  0.0000000000000D+00  0.0000000000000D+00
420  4.1900000000000D+00  0.0000000000000D+00  0.0000000000000D+00
421  4.2000000000000D+00  0.0000000000000D+00  0.0000000000000D+00
422  4.2100000000000D+00  0.0000000000000D+00  0.0000000000000D+00
423  4.2200000000000D+00  0.0000000000000D+00  0.0000000000000D+00
424  4.2300000000000D+00  0.0000000000000D+00  0.0000000000000D+00
425  4.2400000000000D+00  0.0000000000000D+00  0.0000000000000D+00
426  4.2500000000000D+00  0.0000000000000D+00  0.0000000000000D+00
427  4.2600000000000D+00  0.0000000000000D+00  0.0000000000000D+00
428  4.2700000000000D+00  0.0000000000000D+00  0.0000000000000D+00
429  4.2800000000000D+00  0.0000000000000D+00  0.0000000000000D+00
430  4.2900000000000D+00  0.0000000000000D+00  0.0000000000000D+00
431  4.3000000000000D+00  0.0000000000000D+00  0.0000000000000D+00
432  4.3100000000000D+00  0.0000000000000D+00  0.0000000000000D+00
433  4.3200000000000D+00  0.0000000000000D+00  0.0000000000000D+00
434  4.3300000000000D+00  0.0000000000000D+00  0.0000000000000D+00
435  4.3400000000000D+00  0.0000000000000D+00  0.0000000000000D+00
436  4.3500000000000D+00  0.0000000000000D+00  0.0000000000000D+00
437  4.3600000000000D+00  0.0000000000000D+00  0.0000000000000D+00
438  4.3700000000000D+00  0.0000000000000D+00  0.0000000000000D+00
439  4.3800000000000D+00  0.0000000000000D+00  0.0000000000000D+00
440  4.3900000000000D+00  0.0000000000000D+00  0.0000000000000D+00
441  4.4000000000000D+00  0.0000000000000D+00  0.0000000000000D+00
442  4.4100000000000D+00  0.0000000000000D+00  0.0000000000000D+00
443  4.4200000000000D+00  0.0000000000000D+00  0.0000000000000D+00