Pb    ONCVPSP-3.3.0  r_core=   1.40277   1.50685   1.40277
82.0000     22.0000      180430    zatom,zion,pspd
8 -116133   2     4   600     0    pspcod,pspxc,lmax,lloc,mmax,r2well
5.99000000  6.00000000  0.00000000    rchrg fchrg qchrg
2     4     4     0    nproj
3     1           extension_switch
4     4     0    nprojso
0                         2.1306677412377D+00  1.6697762617681D+01
1  0.0000000000000D+00  2.0806647516025D-09 -7.1483441388409D-10
2  1.0000000000000D-02 -2.6254925073448D-02  8.3209861630305D-02
3  2.0000000000000D-02 -5.2255342829672D-02  1.6619094125027D-01
4  3.0000000000000D-02 -7.7749194448493D-02  2.4871556648913D-01
5  4.0000000000000D-02 -1.0248928365627D-01  3.3055827226902D-01
6  5.0000000000000D-02 -1.2623562242087D-01  4.1149687467180D-01
7  6.0000000000000D-02 -1.4875767545780D-01  4.9131350958783D-01
8  7.0000000000000D-02 -1.6983647230220D-01  5.6979562526152D-01
9  8.0000000000000D-02 -1.8926655778202D-01  6.4673691856307D-01
10  9.0000000000000D-02 -2.0685775426844D-01  7.2193820568836D-01
11  1.0000000000000D-01 -2.2243671204225D-01  7.9520821900522D-01
12  1.1000000000000D-01 -2.3584822745308D-01  8.6636432290837D-01
13  1.2000000000000D-01 -2.4695631221209D-01  9.3523314279942D-01
14  1.3000000000000D-01 -2.5564500109062D-01  1.0016511026525D+00
15  1.4000000000000D-01 -2.6181888943735D-01  1.0654648680384D+00
16  1.5000000000000D-01 -2.6540339621019D-01  1.1265316929400D+00
17  1.6000000000000D-01 -2.6634475257940D-01  1.1847196701717D+00
18  1.7000000000000D-01 -2.6460972052748D-01  1.2399078866976D+00
19  1.8000000000000D-01 -2.6018505017952D-01  1.2919864865971D+00
20  1.9000000000000D-01 -2.5307668877659D-01  1.3408566458321D+00
21  2.0000000000000D-01 -2.4330875818781D-01  1.3864304643037D+00
22  2.1000000000000D-01 -2.3092232157756D-01  1.4286307819238D+00
23  2.2000000000000D-01 -2.1597396324415D-01  1.4673909265481D+00
24  2.3000000000000D-01 -1.9853420866547D-01  1.5026544026046D+00
25  2.4000000000000D-01 -1.7868581437680D-01  1.5343745300829D+00
26  2.5000000000000D-01 -1.5652195941860D-01  1.5625140442150D+00
27  2.6000000000000D-01 -1.3214437169033D-01  1.5870446666607D+00
28  2.7000000000000D-01 -1.0566142359976D-01  1.6079466593025D+00
29  2.8000000000000D-01 -7.7186231881073D-02  1.6252083718495D+00
30  2.9000000000000D-01 -4.6834796358429D-02  1.6388257943377D+00
31  3.0000000000000D-01 -1.4724211746361D-02  1.6488021253060D+00
32  3.1000000000000D-01  1.9029014689478D-02  1.6551473659123D+00
33  3.2000000000000D-01  5.4310508624996D-02  1.6578779495466D+00
34  3.3000000000000D-01  9.1009408722654D-02  1.6570164156082D+00
35  3.4000000000000D-01  1.2901955552727D-01  1.6525911350464D+00
36  3.5000000000000D-01  1.6824046688672D-01  1.6446360940420D+00
37  3.6000000000000D-01  2.0857808137248D-01  1.6331907408449D+00
38  3.7000000000000D-01  2.4994525534738D-01  1.6182998993033D+00
39  3.8000000000000D-01  2.9226200380600D-01  1.6000137510438D+00
40  3.9000000000000D-01  3.3545547983034D-01  1.5783878866189D+00
41  4.0000000000000D-01  3.7945969238356D-01  1.5534834242511D+00
42  4.1000000000000D-01  4.2421496713099D-01  1.5253671931010D+00
43  4.2000000000000D-01  4.6966715994782D-01  1.4941119763072D+00
44  4.3000000000000D-01  5.1576663766547D-01  1.4597968073985D+00
45  4.4000000000000D-01  5.6246704534065D-01  1.4225073121226D+00
46  4.5000000000000D-01  6.0972388381801D-01  1.3823360862696D+00
47  4.6000000000000D-01  6.5749292552454D-01  1.3393830987424D+00
48  4.7000000000000D-01  7.0572850019840D-01  1.2937561079586D+00
49  4.8000000000000D-01  7.5438168555223D-01  1.2455710786809D+00
50  4.9000000000000D-01  8.0339844063046D-01  1.1949525855949D+00
51  5.0000000000000D-01  8.5271772178854D-01  1.1420341893994D+00
52  5.1000000000000D-01  9.0226962274496D-01  1.0869587708620D+00
53  5.2000000000000D-01  9.5197358100021D-01  1.0298788082351D+00
54  5.3000000000000D-01  1.0017366930443D+00  9.7095658363387D-01
55  5.4000000000000D-01  1.0514521801723D+00  9.1036430444974D-01
56  5.5000000000000D-01  1.1009980453872D+00  8.4828412661744D-01
57  5.6000000000000D-01  1.1502359597881D+00  7.8490806755892D-01
58  5.7000000000000D-01  1.1990104140558D+00  7.2043779788921D-01
59  5.8000000000000D-01  1.2471481671523D+00  6.5508430247951D-01
60  5.9000000000000D-01  1.2944580202327D+00  5.8906740319777D-01
61  6.0000000000000D-01  1.3407309390179D+00  5.2261513759282D-01
62  6.1000000000000D-01  1.3857405426380D+00  4.5596298989312D-01
63  6.2000000000000D-01  1.4292439712046D+00  3.8935297296782D-01
64  6.3000000000000D-01  1.4709831382855D+00  3.2303256227377D-01
65  6.4000000000000D-01  1.5106863680612D+00  2.5725348528059D-01
66  6.5000000000000D-01  1.5480704103443D+00  1.9227037238282D-01
67  6.6000000000000D-01  1.5828428199989D+00  1.2833927781636D-01
68  6.7000000000000D-01  1.6147046806251D+00  6.5716081587324D-02
69  6.8000000000000D-01  1.6433536458546D+00  4.6547858269101D-03
70  6.9000000000000D-01  1.6684872653164D+00 -5.4594278723649D-02
71  7.0000000000000D-01  1.6898065564036D+00 -1.1178631826384D-01
72  7.1000000000000D-01  1.7070197774523D+00 -1.6668399373997D-01
73  7.2000000000000D-01  1.7198463530284D+00 -2.1905936942816D-01
74  7.3000000000000D-01  1.7280208977085D+00 -2.6869586937402D-01
75  7.4000000000000D-01  1.7312972811817D+00 -3.1539021763040D-01
76  7.5000000000000D-01  1.7294526747349D+00 -3.5895433741632D-01
77  7.6000000000000D-01  1.7222915172964D+00 -3.9921718385265D-01
78  7.7000000000000D-01  1.7096493382459D+00 -4.3602648482582D-01
79  7.8000000000000D-01  1.6913963741979D+00 -4.6925036480387D-01
80  7.9000000000000D-01  1.6674409179406D+00 -4.9877882708501D-01
81  8.0000000000000D-01  1.6377323396936D+00 -5.2452507100008D-01
82  8.1000000000000D-01  1.6022637238056D+00 -5.4642662200983D-01
83  8.2000000000000D-01  1.5610740679413D+00 -5.6444625442534D-01
84  8.3000000000000D-01  1.5142499966602D+00 -5.7857268861769D-01
85  8.4000000000000D-01  1.4619269470118D+00 -5.8882104704808D-01
86  8.5000000000000D-01  1.4042897902942D+00 -5.9523305621029D-01
87  8.6000000000000D-01  1.3415728613658D+00 -5.9787698460442D-01
88  8.7000000000000D-01  1.2740593747696D+00 -5.9684731011393D-01
89  8.8000000000000D-01  1.2020802152880D+00 -5.9226411358213D-01
90  8.9000000000000D-01  1.1260120993262D+00 -5.8427219895446D-01
91  9.0000000000000D-01  1.0462751125471D+00 -5.7303994399677D-01
92  9.1000000000000D-01  9.6332963834307D-01 -5.5875788927670D-01
93  9.2000000000000D-01  8.7767270088012D-01 -5.4163707674659D-01
94  9.3000000000000D-01  7.8983375545091D-01 -5.2190715283814D-01
95  9.4000000000000D-01  7.0036996757983D-01 -4.9981425441508D-01
96  9.5000000000000D-01  6.0986103059551D-01 -4.7561869917733D-01
97  9.6000000000000D-01  5.1890357908947D-01 -4.4959250511496D-01
98  9.7000000000000D-01  4.2810526268361D-01 -4.2201676632492D-01
99  9.8000000000000D-01  3.3807855070988D-01 -3.9317891487874D-01
100  9.9000000000000D-01  2.4943434368079D-01 -3.6336990043580D-01
101  1.0000000000000D+00  1.6277547159831D-01 -3.3288132085693D-01
102  1.0100000000000D+00  7.8690162323011D-02 -3.0200253823317D-01
103  1.0200000000000D+00 -2.2544348395228D-03 -2.7101781540601D-01
104  1.0300000000000D+00 -7.9518584499806D-02 -2.4020350822117D-01
105  1.0400000000000D+00 -1.5259607415945D-01 -2.0982534845221D-01
106  1.0500000000000D+00 -2.2102001336236D-01 -1.8013585147289D-01
107  1.0600000000000D+00 -2.8436824261352D-01 -1.5137188145675D-01
108  1.0700000000000D+00 -3.4226827579305D-01 -1.2375240514504D-01
109  1.0800000000000D+00 -3.9440170563699D-01 -9.7476462811302D-02
110  1.0900000000000D+00 -4.4050800811431D-01 -7.2721382489233D-02
111  1.1000000000000D+00 -4.8038768976769D-01 -4.9641260181310D-02
112  1.1100000000000D+00 -5.1390472970022D-01 -2.8365725683101D-02
113  1.1200000000000D+00 -5.4098827804013D-01 -8.9990095646781D-03
114  1.1300000000000D+00 -5.6163358269375D-01  8.3806771564335D-03
115  1.1400000000000D+00 -5.7590212706597D-01  2.3721443471541D-02
116  1.1500000000000D+00 -5.8392097161439D-01  3.6997695861561D-02
117  1.1600000000000D+00 -5.8588130360627D-01  4.8209794291426D-02
118  1.1700000000000D+00 -5.8203621159406D-01  5.7383393046224D-02
119  1.1800000000000D+00 -5.7269771230269D-01  6.4568477184589D-02
120  1.1900000000000D+00 -5.5823306596013D-01  6.9838108702527D-02
121  1.2000000000000D+00 -5.3906042999807D-01  7.3286902020967D-02
122  1.2100000000000D+00 -5.1564390957167D-01  7.5029251791447D-02
123  1.2200000000000D+00 -4.8848807192215D-01  7.5197339418529D-02
124  1.2300000000000D+00 -4.5813199914859D-01  7.3938947689379D-02
125  1.2400000000000D+00 -4.2514296404018D-01  7.1415116901916D-02
126  1.2500000000000D+00 -3.9010981698844D-01  6.7797677226469D-02
127  1.2600000000000D+00 -3.5363617634403D-01  6.3266693752743D-02
128  1.2700000000000D+00 -3.1633353270122D-01  5.8007867248970D-02
129  1.2800000000000D+00 -2.7881435035050D-01  5.2209924628587D-02
130  1.2900000000000D+00 -2.4168505179533D-01  4.6061963443158D-02
131  1.3000000000000D+00 -2.0553956920259D-01  3.9750995558299D-02
132  1.3100000000000D+00 -1.7095453474976D-01  3.3460048055087D-02
133  1.3200000000000D+00 -1.3847490555401D-01  2.7363031476234D-02
134  1.3300000000000D+00 -1.0860007258221D-01  2.1619732638276D-02
135  1.3400000000000D+00 -8.1769352964521D-02  1.6370543710315D-02
136  1.3500000000000D+00 -5.8356672056709D-02  1.1734332102332D-02
137  1.3600000000000D+00 -3.8679434609313D-02  7.8095234402380D-03
138  1.3700000000000D+00 -2.2930117522127D-02  4.6592802570228D-03
139  1.3800000000000D+00 -1.1231053918909D-02  2.3215493815390D-03
140  1.3900000000000D+00 -4.0519899301902D-03  9.0110648945794D-04
141  1.4000000000000D+00 -8.8908734729798D-04  2.7784431501504D-04
142  1.4100000000000D+00 -9.4268186908598D-06  5.8938718619294D-05
143  1.4200000000000D+00 -2.7050066675361D-06 -6.3051310896201D-07
144  1.4300000000000D+00 -3.3888259513533D-05 -2.1501368695979D-06
145  1.4400000000000D+00  2.4580608158523D-06  1.0442529644562D-06
146  1.4500000000000D+00  2.9374532322002D-06  7.9218618311013D-07
147  1.4600000000000D+00  1.3195856398238D-06 -5.1551386643027D-07
148  1.4700000000000D+00  3.1571383192399D-07 -1.2333785187476D-07
149  1.4800000000000D+00  0.0000000000000D+00  0.0000000000000D+00
150  1.4900000000000D+00  0.0000000000000D+00  0.0000000000000D+00
151  1.5000000000000D+00  0.0000000000000D+00  0.0000000000000D+00
152  1.5100000000000D+00  0.0000000000000D+00  0.0000000000000D+00
153  1.5200000000000D+00  0.0000000000000D+00  0.0000000000000D+00
154  1.5300000000000D+00  0.0000000000000D+00  0.0000000000000D+00
155  1.5400000000000D+00  0.0000000000000D+00  0.0000000000000D+00
156  1.5500000000000D+00  0.0000000000000D+00  0.0000000000000D+00
157  1.5600000000000D+00  0.0000000000000D+00  0.0000000000000D+00
158  1.5700000000000D+00  0.0000000000000D+00  0.0000000000000D+00
159  1.5800000000000D+00  0.0000000000000D+00  0.0000000000000D+00
160  1.5900000000000D+00  0.0000000000000D+00  0.0000000000000D+00
161  1.6000000000000D+00  0.0000000000000D+00  0.0000000000000D+00
162  1.6100000000000D+00  0.0000000000000D+00  0.0000000000000D+00
163  1.6200000000000D+00  0.0000000000000D+00  0.0000000000000D+00
164  1.6300000000000D+00  0.0000000000000D+00  0.0000000000000D+00
165  1.6400000000000D+00  0.0000000000000D+00  0.0000000000000D+00
166  1.6500000000000D+00  0.0000000000000D+00  0.0000000000000D+00
167  1.6600000000000D+00  0.0000000000000D+00  0.0000000000000D+00
168  1.6700000000000D+00  0.0000000000000D+00  0.0000000000000D+00
169  1.6800000000000D+00  0.0000000000000D+00  0.0000000000000D+00
170  1.6900000000000D+00  0.0000000000000D+00  0.0000000000000D+00
171  1.7000000000000D+00  0.0000000000000D+00  0.0000000000000D+00
172  1.7100000000000D+00  0.0000000000000D+00  0.0000000000000D+00
173  1.7200000000000D+00  0.0000000000000D+00  0.0000000000000D+00
174  1.7300000000000D+00  0.0000000000000D+00  0.0000000000000D+00
175  1.7400000000000D+00  0.0000000000000D+00  0.0000000000000D+00
176  1.7500000000000D+00  0.0000000000000D+00  0.0000000000000D+00
177  1.7600000000000D+00  0.0000000000000D+00  0.0000000000000D+00
178  1.7700000000000D+00  0.0000000000000D+00  0.0000000000000D+00
179  1.7800000000000D+00  0.0000000000000D+00  0.0000000000000D+00
180  1.7900000000000D+00  0.0000000000000D+00  0.0000000000000D+00
181  1.8000000000000D+00  0.0000000000000D+00  0.0000000000000D+00
182  1.8100000000000D+00  0.0000000000000D+00  0.0000000000000D+00
183  1.8200000000000D+00  0.0000000000000D+00  0.0000000000000D+00
184  1.8300000000000D+00  0.0000000000000D+00  0.0000000000000D+00
185  1.8400000000000D+00  0.0000000000000D+00  0.0000000000000D+00
186  1.8500000000000D+00  0.0000000000000D+00  0.0000000000000D+00
187  1.8600000000000D+00  0.0000000000000D+00  0.0000000000000D+00
188  1.8700000000000D+00  0.0000000000000D+00  0.0000000000000D+00
189  1.8800000000000D+00  0.0000000000000D+00  0.0000000000000D+00
190  1.8900000000000D+00  0.0000000000000D+00  0.0000000000000D+00
191  1.9000000000000D+00  0.0000000000000D+00  0.0000000000000D+00
192  1.9100000000000D+00  0.0000000000000D+00  0.0000000000000D+00
193  1.9200000000000D+00  0.0000000000000D+00  0.0000000000000D+00
194  1.9300000000000D+00  0.0000000000000D+00  0.0000000000000D+00
195  1.9400000000000D+00  0.0000000000000D+00  0.0000000000000D+00
196  1.9500000000000D+00  0.0000000000000D+00  0.0000000000000D+00
197  1.9600000000000D+00  0.0000000000000D+00  0.0000000000000D+00
198  1.9700000000000D+00  0.0000000000000D+00  0.0000000000000D+00
199  1.9800000000000D+00  0.0000000000000D+00  0.0000000000000D+00
200  1.9900000000000D+00  0.0000000000000D+00  0.0000000000000D+00
201  2.0000000000000D+00  0.0000000000000D+00  0.0000000000000D+00
202  2.0100000000000D+00  0.0000000000000D+00  0.0000000000000D+00
203  2.0200000000000D+00  0.0000000000000D+00  0.0000000000000D+00
204  2.0300000000000D+00  0.0000000000000D+00  0.0000000000000D+00
205  2.0400000000000D+00  0.0000000000000D+00  0.0000000000000D+00
206  2.0500000000000D+00  0.0000000000000D+00  0.0000000000000D+00
207  2.0600000000000D+00  0.0000000000000D+00  0.0000000000000D+00
208  2.0700000000000D+00  0.0000000000000D+00  0.0000000000000D+00
209  2.0800000000000D+00  0.0000000000000D+00  0.0000000000000D+00
210  2.0900000000000D+00  0.0000000000000D+00  0.0000000000000D+00
211  2.1000000000000D+00  0.0000000000000D+00  0.0000000000000D+00
212  2.1100000000000D+00  0.0000000000000D+00  0.0000000000000D+00
213  2.1200000000000D+00  0.0000000000000D+00  0.0000000000000D+00
214  2.1300000000000D+00  0.0000000000000D+00  0.0000000000000D+00
215  2.1400000000000D+00  0.0000000000000D+00  0.0000000000000D+00
216  2.1500000000000D+00  0.0000000000000D+00  0.0000000000000D+00
217  2.1600000000000D+00  0.0000000000000D+00  0.0000000000000D+00
218  2.1700000000000D+00  0.0000000000000D+00  0.0000000000000D+00
219  2.1800000000000D+00  0.0000000000000D+00  0.0000000000000D+00
220  2.1900000000000D+00  0.0000000000000D+00  0.0000000000000D+00
221  2.2000000000000D+00  0.0000000000000D+00  0.0000000000000D+00
222  2.2100000000000D+00  0.0000000000000D+00  0.0000000000000D+00
223  2.2200000000000D+00  0.0000000000000D+00  0.0000000000000D+00
224  2.2300000000000D+00  0.0000000000000D+00  0.0000000000000D+00
225  2.2400000000000D+00  0.0000000000000D+00  0.0000000000000D+00
226  2.2500000000000D+00  0.0000000000000D+00  0.0000000000000D+00
227  2.2600000000000D+00  0.0000000000000D+00  0.0000000000000D+00
228  2.2700000000000D+00  0.0000000000000D+00  0.0000000000000D+00
229  2.2800000000000D+00  0.0000000000000D+00  0.0000000000000D+00
230  2.2900000000000D+00  0.0000000000000D+00  0.0000000000000D+00
231  2.3000000000000D+00  0.0000000000000D+00  0.0000000000000D+00
232  2.3100000000000D+00  0.0000000000000D+00  0.0000000000000D+00
233  2.3200000000000D+00  0.0000000000000D+00  0.0000000000000D+00
234  2.3300000000000D+00  0.0000000000000D+00  0.0000000000000D+00
235  2.3400000000000D+00  0.0000000000000D+00  0.0000000000000D+00
236  2.3500000000000D+00  0.0000000000000D+00  0.0000000000000D+00
237  2.3600000000000D+00  0.0000000000000D+00  0.0000000000000D+00
238  2.3700000000000D+00  0.0000000000000D+00  0.0000000000000D+00
239  2.3800000000000D+00  0.0000000000000D+00  0.0000000000000D+00
240  2.3900000000000D+00  0.0000000000000D+00  0.0000000000000D+00
241  2.4000000000000D+00  0.0000000000000D+00  0.0000000000000D+00
242  2.4100000000000D+00  0.0000000000000D+00  0.0000000000000D+00
243  2.4200000000000D+00  0.0000000000000D+00  0.0000000000000D+00
244  2.4300000000000D+00  0.0000000000000D+00  0.0000000000000D+00
245  2.4400000000000D+00  0.0000000000000D+00  0.0000000000000D+00
246  2.4500000000000D+00  0.0000000000000D+00  0.0000000000000D+00
247  2.4600000000000D+00  0.0000000000000D+00  0.0000000000000D+00
248  2.4700000000000D+00  0.0000000000000D+00  0.0000000000000D+00
249  2.4800000000000D+00  0.0000000000000D+00  0.0000000000000D+00
250  2.4900000000000D+00  0.0000000000000D+00  0.0000000000000D+00
251  2.5000000000000D+00  0.0000000000000D+00  0.0000000000000D+00
252  2.5100000000000D+00  0.0000000000000D+00  0.0000000000000D+00
253  2.5200000000000D+00  0.0000000000000D+00  0.0000000000000D+00
254  2.5300000000000D+00  0.0000000000000D+00  0.0000000000000D+00
255  2.5400000000000D+00  0.0000000000000D+00  0.0000000000000D+00
256  2.5500000000000D+00  0.0000000000000D+00  0.0000000000000D+00
257  2.5600000000000D+00  0.0000000000000D+00  0.0000000000000D+00
258  2.5700000000000D+00  0.0000000000000D+00  0.0000000000000D+00
259  2.5800000000000D+00  0.0000000000000D+00  0.0000000000000D+00
260  2.5900000000000D+00  0.0000000000000D+00  0.0000000000000D+00
261  2.6000000000000D+00  0.0000000000000D+00  0.0000000000000D+00
262  2.6100000000000D+00  0.0000000000000D+00  0.0000000000000D+00
263  2.6200000000000D+00  0.0000000000000D+00  0.0000000000000D+00
264  2.6300000000000D+00  0.0000000000000D+00  0.0000000000000D+00
265  2.6400000000000D+00  0.0000000000000D+00  0.0000000000000D+00
266  2.6500000000000D+00  0.0000000000000D+00  0.0000000000000D+00
267  2.6600000000000D+00  0.0000000000000D+00  0.0000000000000D+00
268  2.6700000000000D+00  0.0000000000000D+00  0.0000000000000D+00
269  2.6800000000000D+00  0.0000000000000D+00  0.0000000000000D+00
270  2.6900000000000D+00  0.0000000000000D+00  0.0000000000000D+00
271  2.7000000000000D+00  0.0000000000000D+00  0.0000000000000D+00
272  2.7100000000000D+00  0.0000000000000D+00  0.0000000000000D+00
273  2.7200000000000D+00  0.0000000000000D+00  0.0000000000000D+00
274  2.7300000000000D+00  0.0000000000000D+00  0.0000000000000D+00
275  2.7400000000000D+00  0.0000000000000D+00  0.0000000000000D+00
276  2.7500000000000D+00  0.0000000000000D+00  0.0000000000000D+00
277  2.7600000000000D+00  0.0000000000000D+00  0.0000000000000D+00
278  2.7700000000000D+00  0.0000000000000D+00  0.0000000000000D+00
279  2.7800000000000D+00  0.0000000000000D+00  0.0000000000000D+00
280  2.7900000000000D+00  0.0000000000000D+00  0.0000000000000D+00
281  2.8000000000000D+00  0.0000000000000D+00  0.0000000000000D+00
282  2.8100000000000D+00  0.0000000000000D+00  0.0000000000000D+00
283  2.8200000000000D+00  0.0000000000000D+00  0.0000000000000D+00
284  2.8300000000000D+00  0.0000000000000D+00  0.0000000000000D+00
285  2.8400000000000D+00  0.0000000000000D+00  0.0000000000000D+00
286  2.8500000000000D+00  0.0000000000000D+00  0.0000000000000D+00
287  2.8600000000000D+00  0.0000000000000D+00  0.0000000000000D+00
288  2.8700000000000D+00  0.0000000000000D+00  0.0000000000000D+00
289  2.8800000000000D+00  0.0000000000000D+00  0.0000000000000D+00
290  2.8900000000000D+00  0.0000000000000D+00  0.0000000000000D+00
291  2.9000000000000D+00  0.0000000000000D+00  0.0000000000000D+00
292  2.9100000000000D+00  0.0000000000000D+00  0.0000000000000D+00
293  2.9200000000000D+00  0.0000000000000D+00  0.0000000000000D+00
294  2.9300000000000D+00  0.0000000000000D+00  0.0000000000000D+00
295  2.9400000000000D+00  0.0000000000000D+00  0.0000000000000D+00
296  2.9500000000000D+00  0.0000000000000D+00  0.0000000000000D+00
297  2.9600000000000D+00  0.0000000000000D+00  0.0000000000000D+00
298  2.9700000000000D+00  0.0000000000000D+00  0.0000000000000D+00
299  2.9800000000000D+00  0.0000000000000D+00  0.0000000000000D+00
300  2.9900000000000D+00  0.0000000000000D+00  0.0000000000000D+00
301  3.0000000000000D+00  0.0000000000000D+00  0.0000000000000D+00
302  3.0100000000000D+00  0.0000000000000D+00  0.0000000000000D+00
303  3.0200000000000D+00  0.0000000000000D+00  0.0000000000000D+00
304  3.0300000000000D+00  0.0000000000000D+00  0.0000000000000D+00
305  3.0400000000000D+00  0.0000000000000D+00  0.0000000000000D+00
306  3.0500000000000D+00  0.0000000000000D+00  0.0000000000000D+00
307  3.0600000000000D+00  0.0000000000000D+00  0.0000000000000D+00
308  3.0700000000000D+00  0.0000000000000D+00  0.0000000000000D+00
309  3.0800000000000D+00  0.0000000000000D+00  0.0000000000000D+00
310  3.0900000000000D+00  0.0000000000000D+00  0.0000000000000D+00
311  3.1000000000000D+00  0.0000000000000D+00  0.0000000000000D+00
312  3.1100000000000D+00  0.0000000000000D+00  0.0000000000000D+00
313  3.1200000000000D+00  0.0000000000000D+00  0.0000000000000D+00
314  3.1300000000000D+00  0.0000000000000D+00  0.0000000000000D+00
315  3.1400000000000D+00  0.0000000000000D+00  0.0000000000000D+00
316  3.1500000000000D+00  0.0000000000000D+00  0.0000000000000D+00
317  3.1600000000000D+00  0.0000000000000D+00  0.0000000000000D+00
318  3.1700000000000D+00  0.0000000000000D+00  0.0000000000000D+00
319  3.1800000000000D+00  0.0000000000000D+00  0.0000000000000D+00
320  3.1900000000000D+00  0.0000000000000D+00  0.0000000000000D+00
321  3.2000000000000D+00  0.0000000000000D+00  0.0000000000000D+00
322  3.2100000000000D+00  0.0000000000000D+00  0.0000000000000D+00
323  3.2200000000000D+00  0.0000000000000D+00  0.0000000000000D+00
324  3.2300000000000D+00  0.0000000000000D+00  0.0000000000000D+00
325  3.2400000000000D+00  0.0000000000000D+00  0.0000000000000D+00
326  3.2500000000000D+00  0.0000000000000D+00  0.0000000000000D+00
327  3.2600000000000D+00  0.0000000000000D+00  0.0000000000000D+00
328  3.2700000000000D+00  0.0000000000000D+00  0.0000000000000D+00
329  3.2800000000000D+00  0.0000000000000D+00  0.0000000000000D+00
330  3.2900000000000D+00  0.0000000000000D+00  0.0000000000000D+00
331  3.3000000000000D+00  0.0000000000000D+00  0.0000000000000D+00
332  3.3100000000000D+00  0.0000000000000D+00  0.0000000000000D+00
333  3.3200000000000D+00  0.0000000000000D+00  0.0000000000000D+00
334  3.3300000000000D+00  0.0000000000000D+00  0.0000000000000D+00
335  3.3400000000000D+00  0.0000000000000D+00  0.0000000000000D+00
336  3.3500000000000D+00  0.0000000000000D+00  0.0000000000000D+00
337  3.3600000000000D+00  0.0000000000000D+00  0.0000000000000D+00
338  3.3700000000000D+00  0.0000000000000D+00  0.0000000000000D+00
339  3.3800000000000D+00  0.0000000000000D+00  0.0000000000000D+00
340  3.3900000000000D+00  0.0000000000000D+00  0.0000000000000D+00
341  3.4000000000000D+00  0.0000000000000D+00  0.0000000000000D+00
342  3.4100000000000D+00  0.0000000000000D+00  0.0000000000000D+00
343  3.4200000000000D+00  0.0000000000000D+00  0.0000000000000D+00
344  3.4300000000000D+00  0.0000000000000D+00  0.0000000000000D+00
345  3.4400000000000D+00  0.0000000000000D+00  0.0000000000000D+00
346  3.4500000000000D+00  0.0000000000000D+00  0.0000000000000D+00
347  3.4600000000000D+00  0.0000000000000D+00  0.0000000000000D+00
348  3.4700000000000D+00  0.0000000000000D+00  0.0000000000000D+00
349  3.4800000000000D+00  0.0000000000000D+00  0.0000000000000D+00
350  3.4900000000000D+00  0.0000000000000D+00  0.0000000000000D+00
351  3.5000000000000D+00  0.0000000000000D+00  0.0000000000000D+00
352  3.5100000000000D+00  0.0000000000000D+00  0.0000000000000D+00
353  3.5200000000000D+00  0.0000000000000D+00  0.0000000000000D+00
354  3.5300000000000D+00  0.0000000000000D+00  0.0000000000000D+00
355  3.5400000000000D+00  0.0000000000000D+00  0.0000000000000D+00
356  3.5500000000000D+00  0.0000000000000D+00  0.0000000000000D+00
357  3.5600000000000D+00  0.0000000000000D+00  0.0000000000000D+00
358  3.5700000000000D+00  0.0000000000000D+00  0.0000000000000D+00
359  3.5800000000000D+00  0.0000000000000D+00  0.0000000000000D+00
360  3.5900000000000D+00  0.0000000000000D+00  0.0000000000000D+00
361  3.6000000000000D+00  0.0000000000000D+00  0.0000000000000D+00
362  3.6100000000000D+00  0.0000000000000D+00  0.0000000000000D+00
363  3.6200000000000D+00  0.0000000000000D+00  0.0000000000000D+00
364  3.6300000000000D+00  0.0000000000000D+00  0.0000000000000D+00
365  3.6400000000000D+00  0.0000000000000D+00  0.0000000000000D+00
366  3.6500000000000D+00  0.0000000000000D+00  0.0000000000000D+00
367  3.6600000000000D+00  0.0000000000000D+00  0.0000000000000D+00
368  3.6700000000000D+00  0.0000000000000D+00  0.0000000000000D+00
369  3.6800000000000D+00  0.0000000000000D+00  0.0000000000000D+00
370  3.6900000000000D+00  0.0000000000000D+00  0.0000000000000D+00
371  3.7000000000000D+00  0.0000000000000D+00  0.0000000000000D+00
372  3.7100000000000D+00  0.0000000000000D+00  0.0000000000000D+00
373  3.7200000000000D+00  0.0000000000000D+00  0.0000000000000D+00
374  3.7300000000000D+00  0.0000000000000D+00  0.0000000000000D+00
375  3.7400000000000D+00  0.0000000000000D+00  0.0000000000000D+00
376  3.7500000000000D+00  0.0000000000000D+00  0.0000000000000D+00
377  3.7600000000000D+00  0.0000000000000D+00  0.0000000000000D+00
378  3.7700000000000D+00  0.0000000000000D+00  0.0000000000000D+00
379  3.7800000000000D+00  0.0000000000000D+00  0.0000000000000D+00
380  3.7900000000000D+00  0.0000000000000D+00  0.0000000000000D+00
381  3.8000000000000D+00  0.0000000000000D+00  0.0000000000000D+00
382  3.8100000000000D+00  0.0000000000000D+00  0.0000000000000D+00
383  3.8200000000000D+00  0.0000000000000D+00  0.0000000000000D+00
384  3.8300000000000D+00  0.0000000000000D+00  0.0000000000000D+00
385  3.8400000000000D+00  0.0000000000000D+00  0.0000000000000D+00
386  3.8500000000000D+00  0.0000000000000D+00  0.0000000000000D+00
387  3.8600000000000D+00  0.0000000000000D+00  0.0000000000000D+00
388  3.8700000000000D+00  0.0000000000000D+00  0.0000000000000D+00
389  3.8800000000000D+00  0.0000000000000D+00  0.0000000000000D+00
390  3.8900000000000D+00  0.0000000000000D+00  0.0000000000000D+00
391  3.9000000000000D+00  0.0000000000000D+00  0.0000000000000D+00
392  3.9100000000000D+00  0.0000000000000D+00  0.0000000000000D+00
393  3.9200000000000D+00  0.0000000000000D+00  0.0000000000000D+00
394  3.9300000000000D+00  0.0000000000000D+00  0.0000000000000D+00
395  3.9400000000000D+00  0.0000000000000D+00  0.0000000000000D+00
396  3.9500000000000D+00  0.0000000000000D+00  0.0000000000000D+00
397  3.9600000000000D+00  0.0000000000000D+00  0.0000000000000D+00
398  3.9700000000000D+00  0.0000000000000D+00  0.0000000000000D+00
399  3.9800000000000D+00  0.0000000000000D+00  0.0000000000000D+00
400  3.9900000000000D+00  0.0000000000000D+00  0.0000000000000D+00
401  4.0000000000000D+00  0.0000000000000D+00  0.0000000000000D+00
402  4.0100000000000D+00  0.0000000000000D+00  0.0000000000000D+00
403  4.0200000000000D+00  0.0000000000000D+00  0.0000000000000D+00
404  4.0300000000000D+00  0.0000000000000D+00  0.0000000000000D+00
405  4.0400000000000D+00  0.0000000000000D+00  0.0000000000000D+00
406  4.0500000000000D+00  0.0000000000000D+00  0.0000000000000D+00
407  4.0600000000000D+00  0.0000000000000D+00  0.0000000000000D+00
408  4.0700000000000D+00  0.0000000000000D+00  0.0000000000000D+00
409  4.0800000000000D+00  0.0000000000000D+00  0.0000000000000D+00
410  4.0900000000000D+00  0.0000000000000D+00  0.0000000000000D+00
411  4.1000000000000D+00  0.0000000000000D+00  0.0000000000000D+00
412  4.1100000000000D+00  0.0000000000000D+00  0.0000000000000D+00
413  4.1200000000000D+00  0.0000000000000D+00  0.0000000000000D+00
414  4.1300000000000D+00  0.0000000000000D+00  0.0000000000000D+00
415  4.1400000000000D+00  0.0000000000000D+00  0.0000000000000D+00
416  4.1500000000000D+00  0.0000000000000D+00  0.0000000000000D+00
417  4.1600000000000D+00  0.0000000000000D+00  0.0000000000000D+00
418  4.1700000000000D+00  0.0000000000000D+00  0.0000000000000D+00
419  4.1800000000000D+00  0.0000000000000D+00  0.0000000000000D+00
420  4.1900000000000D+00  0.0000000000000D+00  0.0000000000000D+00
421  4.2000000000000D+00  0.0000000000000D+00  0.0000000000000D+00
422  4.2100000000000D+00  0.0000000000000D+00  0.0000000000000D+00
423  4.2200000000000D+00  0.0000000000000D+00  0.0000000000000D+00
424  4.2300000000000D+00  0.0000000000000D+00  0.0000000000000D+00
425  4.2400000000000D+00  0.0000000000000D+00  0.0000000000000D+00
426  4.2500000000000D+00  0.0000000000000D+00  0.0000000000000D+00
427  4.2600000000000D+00  0.0000000000000D+00  0.0000000000000D+00
428  4.2700000000000D+00  0.0000000000000D+00  0.0000000000000D+00
429  4.2800000000000D+00  0.0000000000000D+00  0.0000000000000D+00
430  4.2900000000000D+00  0.0000000000000D+00  0.0000000000000D+00
431  4.3000000000000D+00  0.0000000000000D+00  0.0000000000000D+00
432  4.3100000000000D+00  0.0000000000000D+00  0.0000000000000D+00
433  4.3200000000000D+00  0.0000000000000D+00  0.0000000000000D+00
434  4.3300000000000D+00  0.0000000000000D+00  0.0000000000000D+00
435  4.3400000000000D+00  0.0000000000000D+00  0.0000000000000D+00
436  4.3500000000000D+00  0.0000000000000D+00  0.0000000000000D+00
437  4.3600000000000D+00  0.0000000000000D+00  0.0000000000000D+00
438  4.3700000000000D+00  0.0000000000000D+00  0.0000000000000D+00
439  4.3800000000000D+00  0.0000000000000D+00  0.0000000000000D+00
440  4.3900000000000D+00  0.0000000000000D+00  0.0000000000000D+00
441  4.4000000000000D+00  0.0000000000000D+00  0.0000000000000D+00
442  4.4100000000000D+00  0.0000000000000D+00  0.0000000000000D+00
443  4.4200000000000D+00  0.0000000000000D+00  0.0000000000000D+00