Pd    ONCVPSP-3.3.0  r_core=   1.41052   1.46191   1.55175
46.0000     18.0000      180430    zatom,zion,pspd
8 -116133   2     4   600     0    pspcod,pspxc,lmax,lloc,mmax,r2well
5.99000000  7.00000000  0.00000000    rchrg fchrg qchrg
2     4     3     0    nproj
3     1           extension_switch
4     4     0    nprojso
0                        -2.1247774698045D+00  7.9363053916920D+00
1  0.0000000000000D+00 -9.0944690667172D-10 -1.1125611543150D-10
2  1.0000000000000D-02 -5.7237880560551D-02  6.4569152896872D-02
3  2.0000000000000D-02 -1.1433401231740D-01  1.2900896189140D-01
4  3.0000000000000D-02 -1.7114584815311D-01  1.9319054920715D-01
5  4.0000000000000D-02 -2.2752926299961D-01  2.5698596618128D-01
6  5.0000000000000D-02 -2.8333781132161D-01  3.2026865000445D-01
7  6.0000000000000D-02 -3.3842203969947D-01  3.8291387115977D-01
8  7.0000000000000D-02 -3.9262887180011D-01  4.4479916859220D-01
9  8.0000000000000D-02 -4.4580108211513D-01  5.0580476975104D-01
10  9.0000000000000D-02 -4.9777687372603D-01  5.6581399278512D-01
11  1.0000000000000D-01 -5.4838957403927D-01  6.2471362833227D-01
12  1.1000000000000D-01 -5.9746746093272D-01  6.8239429852924D-01
13  1.2000000000000D-01 -6.4483373008446D-01  7.3875079107463D-01
14  1.3000000000000D-01 -6.9030661243434D-01  7.9368236640298D-01
15  1.4000000000000D-01 -7.3369964877497D-01  8.4709303627107D-01
16  1.5000000000000D-01 -7.7482212640483D-01  8.9889181231562D-01
17  1.6000000000000D-01 -8.1347968062200D-01  9.4899292341230D-01
18  1.7000000000000D-01 -8.4947506161750D-01  9.9731600094641D-01
19  1.8000000000000D-01 -8.8260906506422D-01  1.0437862313940D+00
20  1.9000000000000D-01 -9.1268162241789D-01  1.0883344759049D+00
21  2.0000000000000D-01 -9.3949304467366D-01  1.1308973568727D+00
22  2.1000000000000D-01 -9.6284541108133D-01  1.1714173117728D+00
23  2.2000000000000D-01 -9.8254409214044D-01  1.2098426148355D+00
24  2.3000000000000D-01 -9.9839939409570D-01  1.2461273674072D+00
25  2.4000000000000D-01 -1.0102283101611D+00  1.2802314581247D+00
26  2.5000000000000D-01 -1.0178563618377D+00  1.3121204942886D+00
27  2.6000000000000D-01 -1.0211195119802D+00  1.3417657060688D+00
28  2.7000000000000D-01 -1.0198661297328D+00  1.3691438254023D+00
29  2.8000000000000D-01 -1.0139589861111D+00  1.3942369416554D+00
30  2.9000000000000D-01 -1.0032772578781D+00  1.4170323363058D+00
31  3.0000000000000D-01 -9.8771851645886D-01  1.4375222990675D+00
32  3.1000000000000D-01 -9.6720067797753D-01  1.4557039280147D+00
33  3.2000000000000D-01 -9.4166389009390D-01  1.4715789163751D+00
34  3.3000000000000D-01 -9.1107233117063D-01  1.4851533287421D+00
35  3.4000000000000D-01 -8.7541589742738D-01  1.4964373695091D+00
36  3.5000000000000D-01 -8.3471175413525D-01  1.5054451463505D+00
37  3.6000000000000D-01 -7.8900572757719D-01  1.5121944315666D+00
38  3.7000000000000D-01 -7.3837351544467D-01  1.5167064240683D+00
39  3.8000000000000D-01 -6.8292169455390D-01  1.5190055147101D+00
40  3.9000000000000D-01 -6.2278850623944D-01  1.5191190575783D+00
41  4.0000000000000D-01 -5.5814440150772D-01  1.5170771497113D+00
42  4.1000000000000D-01 -4.8919232999536D-01  1.5129124215761D+00
43  4.2000000000000D-01 -4.1616775896326D-01  1.5066598404342D+00
44  4.3000000000000D-01 -3.3933841094484D-01  1.4983565285291D+00
45  4.4000000000000D-01 -2.5900371124023D-01  1.4880415977882D+00
46  4.5000000000000D-01 -1.7549393917822D-01  1.4757560024879D+00
47  4.6000000000000D-01 -8.9169079936770D-02  1.4615424110523D+00
48  4.7000000000000D-01 -4.1737668500733D-04  1.4454450978772D+00
49  4.8000000000000D-01  9.0346414135069D-02  1.4275098557694D+00
50  4.9000000000000D-01  1.8268305846824D-01  1.4077839292857D+00
51  5.0000000000000D-01  2.7613116220745D-01  1.3863159689449D+00
52  5.1000000000000D-01  3.7020975851356D-01  1.3631560059680D+00
53  5.2000000000000D-01  4.6442114969009D-01  1.3383554468920D+00
54  5.3000000000000D-01  5.5825398543514D-01  1.3119670870903D+00
55  5.4000000000000D-01  6.5118655642467D-01  1.2840451419348D+00
56  5.5000000000000D-01  7.4269027946174D-01  1.2546452940437D+00
57  5.6000000000000D-01  8.3223334788505D-01  1.2238247547880D+00
58  5.7000000000000D-01  9.1928451858673D-01  1.1916423379714D+00
59  5.8000000000000D-01  1.0033170048934D+00  1.1581585433706D+00
60  5.9000000000000D-01  1.0838124427167D+00  1.1234356476090D+00
61  6.0000000000000D-01  1.1602648958297D+00  1.0875377996626D+00
62  6.1000000000000D-01  1.2321848648760D+00  1.0505311181424D+00
63  6.2000000000000D-01  1.2991032638013D+00  1.0124837873852D+00
64  6.3000000000000D-01  1.3605753268219D+00  9.7346614929751D-01
65  6.4000000000000D-01  1.4161844088284D+00  9.3355078785715D-01
66  6.5000000000000D-01  1.4655456422712D+00  8.9281260316297D-01
67  6.6000000000000D-01  1.5083094141003D+00  8.5132887195829D-01
68  6.7000000000000D-01  1.5441646272292D+00  8.0917929162011D-01
69  6.8000000000000D-01  1.5728417122634D+00  7.6644600471515D-01
70  6.9000000000000D-01  1.5941153568789D+00  7.2321360137107D-01
71  7.0000000000000D-01  1.6078069222362D+00  6.7956909689572D-01
72  7.1000000000000D-01  1.6137865181606D+00  6.3560188229884D-01
73  7.2000000000000D-01  1.6119747114921D+00  5.9140364562645D-01
74  7.3000000000000D-01  1.6023438449992D+00  5.4706826230832D-01
75  7.4000000000000D-01  1.5849189475116D+00  5.0269165303744D-01
76  7.5000000000000D-01  1.5597782194509D+00  4.5837160804771D-01
77  7.6000000000000D-01  1.5270530816866D+00  4.1420757702706D-01
78  7.7000000000000D-01  1.4869277795818D+00  3.7030042429445D-01
79  7.8000000000000D-01  1.4396385381781D+00  3.2675214927716D-01
80  7.9000000000000D-01  1.3854722686879D+00  2.8366557274599D-01
81  8.0000000000000D-01  1.3247648307323D+00  2.4114398969359D-01
82  8.1000000000000D-01  1.2578988590790D+00  1.9929079017371D-01
83  8.2000000000000D-01  1.1853011679340D+00  1.5820904984893D-01
84  8.3000000000000D-01  1.1074397500862D+00  1.1800109241966D-01
85  8.4000000000000D-01  1.0248203923512D+00  7.8768026519712D-02
86  8.5000000000000D-01  9.3798293275637D-01  4.0609260061758D-02
87  8.6000000000000D-01  8.4749718872892D-01  3.6219953922939D-03
88  8.7000000000000D-01  7.5395858912929D-01 -3.2099291032443D-02
89  8.8000000000000D-01  6.5798354628883D-01 -6.6463380416811D-02
90  8.9000000000000D-01  5.6020460721751D-01 -9.9382850521817D-02
91  9.0000000000000D-01  4.6126542581080D-01 -1.3077461711685D-01
92  9.1000000000000D-01  3.6181560017254D-01 -1.6056047320916D-01
93  9.2000000000000D-01  2.6250542105278D-01 -1.8866762110998D-01
94  9.3000000000000D-01  1.6398057885029D-01 -2.1502919228135D-01
95  9.4000000000000D-01  6.6876877629155D-02 -2.3958474984194D-01
96  9.5000000000000D-01 -2.8184994870974D-02 -2.6228076859770D-01
97  9.6000000000000D-01 -1.2060459221361D-01 -2.8307108750421D-01
98  9.7000000000000D-01 -2.0980668063293D-01 -3.0191732955910D-01
99  9.8000000000000D-01 -2.9524600914973D-01 -3.1878928427572D-01
100  9.9000000000000D-01 -3.7641183220186D-01 -3.3366524808982D-01
101  1.0000000000000D+00 -4.5283214046358D-01 -3.4653231830810D-01
102  1.0100000000000D+00 -5.2407755790040D-01 -3.5738663651513D-01
103  1.0200000000000D+00 -5.8976486590433D-01 -3.6623357771011D-01
104  1.0300000000000D+00 -6.4956011875581D-01 -3.7308788186693D-01
105  1.0400000000000D+00 -7.0318131795294D-01 -3.7797372501628D-01
106  1.0500000000000D+00 -7.5040061741005D-01 -3.8092472749035D-01
107  1.0600000000000D+00 -7.9104603557792D-01 -3.8198389745731D-01
108  1.0700000000000D+00 -8.2500265524972D-01 -3.8120350843698D-01
109  1.0800000000000D+00 -8.5221329694135D-01 -3.7864491009660D-01
110  1.0900000000000D+00 -8.7267865626655D-01 -3.7437827216167D-01
111  1.1000000000000D+00 -8.8645690156701D-01 -3.6848226196334D-01
112  1.1100000000000D+00 -8.9366273309964D-01 -3.6104365673298D-01
113  1.1200000000000D+00 -8.9446591060703D-01 -3.5215689239813D-01
114  1.1300000000000D+00 -8.8908926139699D-01 -3.4192355124795D-01
115  1.1400000000000D+00 -8.7780618606281D-01 -3.3045179141504D-01
116  1.1500000000000D+00 -8.6093768493136D-01 -3.1785572180412D-01
117  1.1600000000000D+00 -8.3884893287274D-01 -3.0425472661649D-01
118  1.1700000000000D+00 -8.1194543479032D-01 -2.8977274415175D-01
119  1.1800000000000D+00 -7.8066879867333D-01 -2.7453750508450D-01
120  1.1900000000000D+00 -7.4549216782191D-01 -2.5867973594224D-01
121  1.2000000000000D+00 -7.0691535742807D-01 -2.4233233390286D-01
122  1.2100000000000D+00 -6.6545974319548D-01 -2.2562951930785D-01
123  1.2200000000000D+00 -6.2166295431420D-01 -2.0870597278731D-01
124  1.2300000000000D+00 -5.7607342458109D-01 -1.9169596403744D-01
125  1.2400000000000D+00 -5.2924485724849D-01 -1.7473247947488D-01
126  1.2500000000000D+00 -4.8173066136884D-01 -1.5794635621048D-01
127  1.2600000000000D+00 -4.3407841792912D-01 -1.4146542979745D-01
128  1.2700000000000D+00 -3.8682443398803D-01 -1.2541370317442D-01
129  1.2800000000000D+00 -3.4048844387304D-01 -1.0991054428734D-01
130  1.2900000000000D+00 -2.9556851439021D-01 -9.5069919555495D-02
131  1.3000000000000D+00 -2.5253621007760D-01 -8.0999670224407D-02
132  1.3100000000000D+00 -2.1183207401040D-01 -6.7800838544403D-02
133  1.3200000000000D+00 -1.7386147382413D-01 -5.5567049938853D-02
134  1.3300000000000D+00 -1.3899086304430D-01 -4.4383957384604D-02
135  1.3400000000000D+00 -1.0754450389777D-01 -3.4328753696410D-02
136  1.3500000000000D+00 -7.9801688945810D-02 -2.5469756280312D-02
137  1.3600000000000D+00 -5.5994503696004D-02 -1.7866069532618D-02
138  1.3700000000000D+00 -3.6320313813063D-02 -1.1571745458376D-02
139  1.3800000000000D+00 -2.0829542330861D-02 -6.6013958496884D-03
140  1.3900000000000D+00 -9.6972729443772D-03 -3.0134003217465D-03
141  1.4000000000000D+00 -3.3085035632939D-03 -9.3115986749259D-04
142  1.4100000000000D+00 -7.1152725200457D-04 -9.3439234248866D-05
143  1.4200000000000D+00 -2.0611083627672D-05  5.3536805983182D-05
144  1.4300000000000D+00 -1.0222020060706D-05 -1.2077679512197D-05
145  1.4400000000000D+00 -1.9890034233735D-05 -1.5696686095072D-05
146  1.4500000000000D+00  1.2093458230185D-06  3.3135734891820D-06
147  1.4600000000000D+00  7.7644101320051D-07  1.2405752924629D-06
148  1.4700000000000D+00  1.8300092713475D-06  2.0972212105438D-07
149  1.4800000000000D+00  0.0000000000000D+00  0.0000000000000D+00
150  1.4900000000000D+00  0.0000000000000D+00  0.0000000000000D+00
151  1.5000000000000D+00  0.0000000000000D+00  0.0000000000000D+00
152  1.5100000000000D+00  0.0000000000000D+00  0.0000000000000D+00
153  1.5200000000000D+00  0.0000000000000D+00  0.0000000000000D+00
154  1.5300000000000D+00  0.0000000000000D+00  0.0000000000000D+00
155  1.5400000000000D+00  0.0000000000000D+00  0.0000000000000D+00
156  1.5500000000000D+00  0.0000000000000D+00  0.0000000000000D+00
157  1.5600000000000D+00  0.0000000000000D+00  0.0000000000000D+00
158  1.5700000000000D+00  0.0000000000000D+00  0.0000000000000D+00
159  1.5800000000000D+00  0.0000000000000D+00  0.0000000000000D+00
160  1.5900000000000D+00  0.0000000000000D+00  0.0000000000000D+00
161  1.6000000000000D+00  0.0000000000000D+00  0.0000000000000D+00
162  1.6100000000000D+00  0.0000000000000D+00  0.0000000000000D+00
163  1.6200000000000D+00  0.0000000000000D+00  0.0000000000000D+00
164  1.6300000000000D+00  0.0000000000000D+00  0.0000000000000D+00
165  1.6400000000000D+00  0.0000000000000D+00  0.0000000000000D+00
166  1.6500000000000D+00  0.0000000000000D+00  0.0000000000000D+00
167  1.6600000000000D+00  0.0000000000000D+00  0.0000000000000D+00
168  1.6700000000000D+00  0.0000000000000D+00  0.0000000000000D+00
169  1.6800000000000D+00  0.0000000000000D+00  0.0000000000000D+00
170  1.6900000000000D+00  0.0000000000000D+00  0.0000000000000D+00
171  1.7000000000000D+00  0.0000000000000D+00  0.0000000000000D+00
172  1.7100000000000D+00  0.0000000000000D+00  0.0000000000000D+00
173  1.7200000000000D+00  0.0000000000000D+00  0.0000000000000D+00
174  1.7300000000000D+00  0.0000000000000D+00  0.0000000000000D+00
175  1.7400000000000D+00  0.0000000000000D+00  0.0000000000000D+00
176  1.7500000000000D+00  0.0000000000000D+00  0.0000000000000D+00
177  1.7600000000000D+00  0.0000000000000D+00  0.0000000000000D+00
178  1.7700000000000D+00  0.0000000000000D+00  0.0000000000000D+00
179  1.7800000000000D+00  0.0000000000000D+00  0.0000000000000D+00
180  1.7900000000000D+00  0.0000000000000D+00  0.0000000000000D+00
181  1.8000000000000D+00  0.0000000000000D+00  0.0000000000000D+00
182  1.8100000000000D+00  0.0000000000000D+00  0.0000000000000D+00
183  1.8200000000000D+00  0.0000000000000D+00  0.0000000000000D+00
184  1.8300000000000D+00  0.0000000000000D+00  0.0000000000000D+00
185  1.8400000000000D+00  0.0000000000000D+00  0.0000000000000D+00
186  1.8500000000000D+00  0.0000000000000D+00  0.0000000000000D+00
187  1.8600000000000D+00  0.0000000000000D+00  0.0000000000000D+00
188  1.8700000000000D+00  0.0000000000000D+00  0.0000000000000D+00
189  1.8800000000000D+00  0.0000000000000D+00  0.0000000000000D+00
190  1.8900000000000D+00  0.0000000000000D+00  0.0000000000000D+00
191  1.9000000000000D+00  0.0000000000000D+00  0.0000000000000D+00
192  1.9100000000000D+00  0.0000000000000D+00  0.0000000000000D+00
193  1.9200000000000D+00  0.0000000000000D+00  0.0000000000000D+00
194  1.9300000000000D+00  0.0000000000000D+00  0.0000000000000D+00
195  1.9400000000000D+00  0.0000000000000D+00  0.0000000000000D+00
196  1.9500000000000D+00  0.0000000000000D+00  0.0000000000000D+00
197  1.9600000000000D+00  0.0000000000000D+00  0.0000000000000D+00
198  1.9700000000000D+00  0.0000000000000D+00  0.0000000000000D+00
199  1.9800000000000D+00  0.0000000000000D+00  0.0000000000000D+00
200  1.9900000000000D+00  0.0000000000000D+00  0.0000000000000D+00
201  2.0000000000000D+00  0.0000000000000D+00  0.0000000000000D+00
202  2.0100000000000D+00  0.0000000000000D+00  0.0000000000000D+00
203  2.0200000000000D+00  0.0000000000000D+00  0.0000000000000D+00
204  2.0300000000000D+00  0.0000000000000D+00  0.0000000000000D+00
205  2.0400000000000D+00  0.0000000000000D+00  0.0000000000000D+00
206  2.0500000000000D+00  0.0000000000000D+00  0.0000000000000D+00
207  2.0600000000000D+00  0.0000000000000D+00  0.0000000000000D+00
208  2.0700000000000D+00  0.0000000000000D+00  0.0000000000000D+00
209  2.0800000000000D+00  0.0000000000000D+00  0.0000000000000D+00
210  2.0900000000000D+00  0.0000000000000D+00  0.0000000000000D+00
211  2.1000000000000D+00  0.0000000000000D+00  0.0000000000000D+00
212  2.1100000000000D+00  0.0000000000000D+00  0.0000000000000D+00
213  2.1200000000000D+00  0.0000000000000D+00  0.0000000000000D+00
214  2.1300000000000D+00  0.0000000000000D+00  0.0000000000000D+00
215  2.1400000000000D+00  0.0000000000000D+00  0.0000000000000D+00
216  2.1500000000000D+00  0.0000000000000D+00  0.0000000000000D+00
217  2.1600000000000D+00  0.0000000000000D+00  0.0000000000000D+00
218  2.1700000000000D+00  0.0000000000000D+00  0.0000000000000D+00
219  2.1800000000000D+00  0.0000000000000D+00  0.0000000000000D+00
220  2.1900000000000D+00  0.0000000000000D+00  0.0000000000000D+00
221  2.2000000000000D+00  0.0000000000000D+00  0.0000000000000D+00
222  2.2100000000000D+00  0.0000000000000D+00  0.0000000000000D+00
223  2.2200000000000D+00  0.0000000000000D+00  0.0000000000000D+00
224  2.2300000000000D+00  0.0000000000000D+00  0.0000000000000D+00
225  2.2400000000000D+00  0.0000000000000D+00  0.0000000000000D+00
226  2.2500000000000D+00  0.0000000000000D+00  0.0000000000000D+00
227  2.2600000000000D+00  0.0000000000000D+00  0.0000000000000D+00
228  2.2700000000000D+00  0.0000000000000D+00  0.0000000000000D+00
229  2.2800000000000D+00  0.0000000000000D+00  0.0000000000000D+00
230  2.2900000000000D+00  0.0000000000000D+00  0.0000000000000D+00
231  2.3000000000000D+00  0.0000000000000D+00  0.0000000000000D+00
232  2.3100000000000D+00  0.0000000000000D+00  0.0000000000000D+00
233  2.3200000000000D+00  0.0000000000000D+00  0.0000000000000D+00
234  2.3300000000000D+00  0.0000000000000D+00  0.0000000000000D+00
235  2.3400000000000D+00  0.0000000000000D+00  0.0000000000000D+00
236  2.3500000000000D+00  0.0000000000000D+00  0.0000000000000D+00
237  2.3600000000000D+00  0.0000000000000D+00  0.0000000000000D+00
238  2.3700000000000D+00  0.0000000000000D+00  0.0000000000000D+00
239  2.3800000000000D+00  0.0000000000000D+00  0.0000000000000D+00
240  2.3900000000000D+00  0.0000000000000D+00  0.0000000000000D+00
241  2.4000000000000D+00  0.0000000000000D+00  0.0000000000000D+00
242  2.4100000000000D+00  0.0000000000000D+00  0.0000000000000D+00
243  2.4200000000000D+00  0.0000000000000D+00  0.0000000000000D+00
244  2.4300000000000D+00  0.0000000000000D+00  0.0000000000000D+00
245  2.4400000000000D+00  0.0000000000000D+00  0.0000000000000D+00
246  2.4500000000000D+00  0.0000000000000D+00  0.0000000000000D+00
247  2.4600000000000D+00  0.0000000000000D+00  0.0000000000000D+00
248  2.4700000000000D+00  0.0000000000000D+00  0.0000000000000D+00
249  2.4800000000000D+00  0.0000000000000D+00  0.0000000000000D+00
250  2.4900000000000D+00  0.0000000000000D+00  0.0000000000000D+00
251  2.5000000000000D+00  0.0000000000000D+00  0.0000000000000D+00
252  2.5100000000000D+00  0.0000000000000D+00  0.0000000000000D+00
253  2.5200000000000D+00  0.0000000000000D+00  0.0000000000000D+00
254  2.5300000000000D+00  0.0000000000000D+00  0.0000000000000D+00
255  2.5400000000000D+00  0.0000000000000D+00  0.0000000000000D+00
256  2.5500000000000D+00  0.0000000000000D+00  0.0000000000000D+00
257  2.5600000000000D+00  0.0000000000000D+00  0.0000000000000D+00
258  2.5700000000000D+00  0.0000000000000D+00  0.0000000000000D+00
259  2.5800000000000D+00  0.0000000000000D+00  0.0000000000000D+00
260  2.5900000000000D+00  0.0000000000000D+00  0.0000000000000D+00
261  2.6000000000000D+00  0.0000000000000D+00  0.0000000000000D+00
262  2.6100000000000D+00  0.0000000000000D+00  0.0000000000000D+00
263  2.6200000000000D+00  0.0000000000000D+00  0.0000000000000D+00
264  2.6300000000000D+00  0.0000000000000D+00  0.0000000000000D+00
265  2.6400000000000D+00  0.0000000000000D+00  0.0000000000000D+00
266  2.6500000000000D+00  0.0000000000000D+00  0.0000000000000D+00
267  2.6600000000000D+00  0.0000000000000D+00  0.0000000000000D+00
268  2.6700000000000D+00  0.0000000000000D+00  0.0000000000000D+00
269  2.6800000000000D+00  0.0000000000000D+00  0.0000000000000D+00
270  2.6900000000000D+00  0.0000000000000D+00  0.0000000000000D+00
271  2.7000000000000D+00  0.0000000000000D+00  0.0000000000000D+00
272  2.7100000000000D+00  0.0000000000000D+00  0.0000000000000D+00
273  2.7200000000000D+00  0.0000000000000D+00  0.0000000000000D+00
274  2.7300000000000D+00  0.0000000000000D+00  0.0000000000000D+00
275  2.7400000000000D+00  0.0000000000000D+00  0.0000000000000D+00
276  2.7500000000000D+00  0.0000000000000D+00  0.0000000000000D+00
277  2.7600000000000D+00  0.0000000000000D+00  0.0000000000000D+00
278  2.7700000000000D+00  0.0000000000000D+00  0.0000000000000D+00
279  2.7800000000000D+00  0.0000000000000D+00  0.0000000000000D+00
280  2.7900000000000D+00  0.0000000000000D+00  0.0000000000000D+00
281  2.8000000000000D+00  0.0000000000000D+00  0.0000000000000D+00
282  2.8100000000000D+00  0.0000000000000D+00  0.0000000000000D+00
283  2.8200000000000D+00  0.0000000000000D+00  0.0000000000000D+00
284  2.8300000000000D+00  0.0000000000000D+00  0.0000000000000D+00
285  2.8400000000000D+00  0.0000000000000D+00  0.0000000000000D+00
286  2.8500000000000D+00  0.0000000000000D+00  0.0000000000000D+00
287  2.8600000000000D+00  0.0000000000000D+00  0.0000000000000D+00
288  2.8700000000000D+00  0.0000000000000D+00  0.0000000000000D+00
289  2.8800000000000D+00  0.0000000000000D+00  0.0000000000000D+00
290  2.8900000000000D+00  0.0000000000000D+00  0.0000000000000D+00
291  2.9000000000000D+00  0.0000000000000D+00  0.0000000000000D+00
292  2.9100000000000D+00  0.0000000000000D+00  0.0000000000000D+00
293  2.9200000000000D+00  0.0000000000000D+00  0.0000000000000D+00
294  2.9300000000000D+00  0.0000000000000D+00  0.0000000000000D+00
295  2.9400000000000D+00  0.0000000000000D+00  0.0000000000000D+00
296  2.9500000000000D+00  0.0000000000000D+00  0.0000000000000D+00
297  2.9600000000000D+00  0.0000000000000D+00  0.0000000000000D+00
298  2.9700000000000D+00  0.0000000000000D+00  0.0000000000000D+00
299  2.9800000000000D+00  0.0000000000000D+00  0.0000000000000D+00
300  2.9900000000000D+00  0.0000000000000D+00  0.0000000000000D+00
301  3.0000000000000D+00  0.0000000000000D+00  0.0000000000000D+00
302  3.0100000000000D+00  0.0000000000000D+00  0.0000000000000D+00
303  3.0200000000000D+00  0.0000000000000D+00  0.0000000000000D+00
304  3.0300000000000D+00  0.0000000000000D+00  0.0000000000000D+00
305  3.0400000000000D+00  0.0000000000000D+00  0.0000000000000D+00
306  3.0500000000000D+00  0.0000000000000D+00  0.0000000000000D+00
307  3.0600000000000D+00  0.0000000000000D+00  0.0000000000000D+00
308  3.0700000000000D+00  0.0000000000000D+00  0.0000000000000D+00
309  3.0800000000000D+00  0.0000000000000D+00  0.0000000000000D+00
310  3.0900000000000D+00  0.0000000000000D+00  0.0000000000000D+00
311  3.1000000000000D+00  0.0000000000000D+00  0.0000000000000D+00
312  3.1100000000000D+00  0.0000000000000D+00  0.0000000000000D+00
313  3.1200000000000D+00  0.0000000000000D+00  0.0000000000000D+00
314  3.1300000000000D+00  0.0000000000000D+00  0.0000000000000D+00
315  3.1400000000000D+00  0.0000000000000D+00  0.0000000000000D+00
316  3.1500000000000D+00  0.0000000000000D+00  0.0000000000000D+00
317  3.1600000000000D+00  0.0000000000000D+00  0.0000000000000D+00
318  3.1700000000000D+00  0.0000000000000D+00  0.0000000000000D+00
319  3.1800000000000D+00  0.0000000000000D+00  0.0000000000000D+00
320  3.1900000000000D+00  0.0000000000000D+00  0.0000000000000D+00
321  3.2000000000000D+00  0.0000000000000D+00  0.0000000000000D+00
322  3.2100000000000D+00  0.0000000000000D+00  0.0000000000000D+00
323  3.2200000000000D+00  0.0000000000000D+00  0.0000000000000D+00
324  3.2300000000000D+00  0.0000000000000D+00  0.0000000000000D+00
325  3.2400000000000D+00  0.0000000000000D+00  0.0000000000000D+00
326  3.2500000000000D+00  0.0000000000000D+00  0.0000000000000D+00
327  3.2600000000000D+00  0.0000000000000D+00  0.0000000000000D+00
328  3.2700000000000D+00  0.0000000000000D+00  0.0000000000000D+00
329  3.2800000000000D+00  0.0000000000000D+00  0.0000000000000D+00
330  3.2900000000000D+00  0.0000000000000D+00  0.0000000000000D+00
331  3.3000000000000D+00  0.0000000000000D+00  0.0000000000000D+00
332  3.3100000000000D+00  0.0000000000000D+00  0.0000000000000D+00
333  3.3200000000000D+00  0.0000000000000D+00  0.0000000000000D+00
334  3.3300000000000D+00  0.0000000000000D+00  0.0000000000000D+00
335  3.3400000000000D+00  0.0000000000000D+00  0.0000000000000D+00
336  3.3500000000000D+00  0.0000000000000D+00  0.0000000000000D+00
337  3.3600000000000D+00  0.0000000000000D+00  0.0000000000000D+00
338  3.3700000000000D+00  0.0000000000000D+00  0.0000000000000D+00
339  3.3800000000000D+00  0.0000000000000D+00  0.0000000000000D+00
340  3.3900000000000D+00  0.0000000000000D+00  0.0000000000000D+00
341  3.4000000000000D+00  0.0000000000000D+00  0.0000000000000D+00
342  3.4100000000000D+00  0.0000000000000D+00  0.0000000000000D+00
343  3.4200000000000D+00  0.0000000000000D+00  0.0000000000000D+00
344  3.4300000000000D+00  0.0000000000000D+00  0.0000000000000D+00
345  3.4400000000000D+00  0.0000000000000D+00  0.0000000000000D+00
346  3.4500000000000D+00  0.0000000000000D+00  0.0000000000000D+00
347  3.4600000000000D+00  0.0000000000000D+00  0.0000000000000D+00
348  3.4700000000000D+00  0.0000000000000D+00  0.0000000000000D+00
349  3.4800000000000D+00  0.0000000000000D+00  0.0000000000000D+00
350  3.4900000000000D+00  0.0000000000000D+00  0.0000000000000D+00
351  3.5000000000000D+00  0.0000000000000D+00  0.0000000000000D+00
352  3.5100000000000D+00  0.0000000000000D+00  0.0000000000000D+00
353  3.5200000000000D+00  0.0000000000000D+00  0.0000000000000D+00
354  3.5300000000000D+00  0.0000000000000D+00  0.0000000000000D+00
355  3.5400000000000D+00  0.0000000000000D+00  0.0000000000000D+00
356  3.5500000000000D+00  0.0000000000000D+00  0.0000000000000D+00
357  3.5600000000000D+00  0.0000000000000D+00  0.0000000000000D+00
358  3.5700000000000D+00  0.0000000000000D+00  0.0000000000000D+00
359  3.5800000000000D+00  0.0000000000000D+00  0.0000000000000D+00
360  3.5900000000000D+00  0.0000000000000D+00  0.0000000000000D+00
361  3.6000000000000D+00  0.0000000000000D+00  0.0000000000000D+00
362  3.6100000000000D+00  0.0000000000000D+00  0.0000000000000D+00
363  3.6200000000000D+00  0.0000000000000D+00  0.0000000000000D+00
364  3.6300000000000D+00  0.0000000000000D+00  0.0000000000000D+00
365  3.6400000000000D+00  0.0000000000000D+00  0.0000000000000D+00
366  3.6500000000000D+00  0.0000000000000D+00  0.0000000000000D+00
367  3.6600000000000D+00  0.0000000000000D+00  0.0000000000000D+00
368  3.6700000000000D+00  0.0000000000000D+00  0.0000000000000D+00
369  3.6800000000000D+00  0.0000000000000D+00  0.0000000000000D+00
370  3.6900000000000D+00  0.0000000000000D+00  0.0000000000000D+00
371  3.7000000000000D+00  0.0000000000000D+00  0.0000000000000D+00
372  3.7100000000000D+00  0.0000000000000D+00  0.0000000000000D+00
373  3.7200000000000D+00  0.0000000000000D+00  0.0000000000000D+00
374  3.7300000000000D+00  0.0000000000000D+00  0.0000000000000D+00
375  3.7400000000000D+00  0.0000000000000D+00  0.0000000000000D+00
376  3.7500000000000D+00  0.0000000000000D+00  0.0000000000000D+00
377  3.7600000000000D+00  0.0000000000000D+00  0.0000000000000D+00
378  3.7700000000000D+00  0.0000000000000D+00  0.0000000000000D+00
379  3.7800000000000D+00  0.0000000000000D+00  0.0000000000000D+00
380  3.7900000000000D+00  0.0000000000000D+00  0.0000000000000D+00
381  3.8000000000000D+00  0.0000000000000D+00  0.0000000000000D+00
382  3.8100000000000D+00  0.0000000000000D+00  0.0000000000000D+00
383  3.8200000000000D+00  0.0000000000000D+00  0.0000000000000D+00
384  3.8300000000000D+00  0.0000000000000D+00  0.0000000000000D+00
385  3.8400000000000D+00  0.0000000000000D+00  0.0000000000000D+00
386  3.8500000000000D+00  0.0000000000000D+00  0.0000000000000D+00
387  3.8600000000000D+00  0.0000000000000D+00  0.0000000000000D+00
388  3.8700000000000D+00  0.0000000000000D+00  0.0000000000000D+00
389  3.8800000000000D+00  0.0000000000000D+00  0.0000000000000D+00
390  3.8900000000000D+00  0.0000000000000D+00  0.0000000000000D+00
391  3.9000000000000D+00  0.0000000000000D+00  0.0000000000000D+00
392  3.9100000000000D+00  0.0000000000000D+00  0.0000000000000D+00
393  3.9200000000000D+00  0.0000000000000D+00  0.0000000000000D+00
394  3.9300000000000D+00  0.0000000000000D+00  0.0000000000000D+00
395  3.9400000000000D+00  0.0000000000000D+00  0.0000000000000D+00
396  3.9500000000000D+00  0.0000000000000D+00  0.0000000000000D+00
397  3.9600000000000D+00  0.0000000000000D+00  0.0000000000000D+00
398  3.9700000000000D+00  0.0000000000000D+00  0.0000000000000D+00
399  3.9800000000000D+00  0.0000000000000D+00  0.0000000000000D+00
400  3.9900000000000D+00  0.0000000000000D+00  0.0000000000000D+00
401  4.0000000000000D+00  0.0000000000000D+00  0.0000000000000D+00
402  4.0100000000000D+00  0.0000000000000D+00  0.0000000000000D+00
403  4.0200000000000D+00  0.0000000000000D+00  0.0000000000000D+00
404  4.0300000000000D+00  0.0000000000000D+00  0.0000000000000D+00
405  4.0400000000000D+00  0.0000000000000D+00  0.0000000000000D+00
406  4.0500000000000D+00  0.0000000000000D+00  0.0000000000000D+00
407  4.0600000000000D+00  0.0000000000000D+00  0.0000000000000D+00
408  4.0700000000000D+00  0.0000000000000D+00  0.0000000000000D+00
409  4.0800000000000D+00  0.0000000000000D+00  0.0000000000000D+00
410  4.0900000000000D+00  0.0000000000000D+00  0.0000000000000D+00
411  4.1000000000000D+00  0.0000000000000D+00  0.0000000000000D+00
412  4.1100000000000D+00  0.0000000000000D+00  0.0000000000000D+00
413  4.1200000000000D+00  0.0000000000000D+00  0.0000000000000D+00
414  4.1300000000000D+00  0.0000000000000D+00  0.0000000000000D+00
415  4.1400000000000D+00  0.0000000000000D+00  0.0000000000000D+00
416  4.1500000000000D+00  0.0000000000000D+00  0.0000000000000D+00
417  4.1600000000000D+00  0.0000000000000D+00  0.0000000000000D+00
418  4.1700000000000D+00  0.0000000000000D+00  0.0000000000000D+00
419  4.1800000000000D+00  0.0000000000000D+00  0.0000000000000D+00
420  4.1900000000000D+00  0.0000000000000D+00  0.0000000000000D+00
421  4.2000000000000D+00  0.0000000000000D+00  0.0000000000000D+00
422  4.2100000000000D+00  0.0000000000000D+00  0.0000000000000D+00
423  4.2200000000000D+00  0.0000000000000D+00  0.0000000000000D+00
424  4.2300000000000D+00  0.0000000000000D+00  0.0000000000000D+00
425  4.2400000000000D+00  0.0000000000000D+00  0.0000000000000D+00
426  4.2500000000000D+00  0.0000000000000D+00  0.0000000000000D+00
427  4.2600000000000D+00  0.0000000000000D+00  0.0000000000000D+00
428  4.2700000000000D+00  0.0000000000000D+00  0.0000000000000D+00
429  4.2800000000000D+00  0.0000000000000D+00  0.0000000000000D+00
430  4.2900000000000D+00  0.0000000000000D+00  0.0000000000000D+00
431  4.3000000000000D+00  0.0000000000000D+00  0.0000000000000D+00
432  4.3100000000000D+00  0.0000000000000D+00  0.0000000000000D+00
433  4.3200000000000D+00  0.0000000000000D+00  0.0000000000000D+00
434  4.3300000000000D+00  0.0000000000000D+00  0.0000000000000D+00
435  4.3400000000000D+00  0.0000000000000D+00  0.0000000000000D+00
436  4.3500000000000D+00  0.0000000000000D+00  0.0000000000000D+00
437  4.3600000000000D+00  0.0000000000000D+00  0.0000000000000D+00
438  4.3700000000000D+00  0.0000000000000D+00  0.0000000000000D+00
439  4.3800000000000D+00  0.0000000000000D+00  0.0000000000000D+00
440  4.3900000000000D+00  0.0000000000000D+00  0.0000000000000D+00
441  4.4000000000000D+00  0.0000000000000D+00  0.0000000000000D+00
442  4.4100000000000D+00  0.0000000000000D+00  0.0000000000000D+00
443  4.4200000000000D+00  0.0000000000000D+00  0.0000000000000D+00