Po    ONCVPSP-3.3.0  r_core=   1.40243   1.50649   1.40243
84.0000     24.0000      180430    zatom,zion,pspd
8 -116133   2     4   600     0    pspcod,pspxc,lmax,lloc,mmax,r2well
5.99000000  6.00000000  0.00000000    rchrg fchrg qchrg
2     4     4     0    nproj
3     1           extension_switch
4     4     0    nprojso
0                         2.5413519603824D+00  1.7876154294782D+01
1  0.0000000000000D+00  2.1897040847207D-09 -9.9356278759899D-10
2  1.0000000000000D-02 -1.8222523624520D-02  8.9093652884994D-02
3  2.0000000000000D-02 -3.6190080334303D-02  1.7790428291980D-01
4  3.0000000000000D-02 -5.3650331588858D-02  2.6615042997497D-01
5  4.0000000000000D-02 -7.0356158819599D-02  3.5355374217423D-01
6  5.0000000000000D-02 -8.6068182042974D-02  4.3984048730819D-01
7  6.0000000000000D-02 -1.0055717040976D-01  5.2474301371166D-01
8  7.0000000000000D-02 -1.1360631128301D-01  6.0800114494511D-01
9  8.0000000000000D-02 -1.2501330662689D-01  6.8936349361481D-01
10  9.0000000000000D-02 -1.3459226816327D-01  7.6858868087903D-01
11  1.0000000000000D-01 -1.4217538587213D-01  8.4544644960222D-01
12  1.1000000000000D-01 -1.4761434792848D-01  9.1971866071259D-01
13  1.2000000000000D-01 -1.5078149402900D-01  9.9120016406721D-01
14  1.3000000000000D-01 -1.5157068820728D-01  1.0596995370053D+00
15  1.4000000000000D-01 -1.4989790160431D-01  1.1250396857454D+00
16  1.5000000000000D-01 -1.4570150018302D-01  1.1870583068266D+00
17  1.6000000000000D-01 -1.3894223698333D-01  1.2456082078719D+00
18  1.7000000000000D-01 -1.2960295313478D-01  1.3005574890374D+00
19  1.8000000000000D-01 -1.1768799640640D-01  1.3517895885618D+00
20  1.9000000000000D-01 -1.0322237050522D-01  1.3992031978260D+00
21  2.0000000000000D-01 -8.6250632565664D-02  1.4427120532248D+00
22  2.1000000000000D-01 -6.6835560235050D-02  1.4822446139303D+00
23  2.2000000000000D-01 -4.5056613389347D-02  1.5177436362401D+00
24  2.3000000000000D-01 -2.1008218750519D-02  1.5491656566430D+00
25  2.4000000000000D-01  5.2020915334818D-03  1.5764803969648D+00
26  2.5000000000000D-01  3.3455653990191D-02  1.5996701059611D+00
27  2.6000000000000D-01  6.3624725490372D-02  1.6187288524840D+00
28  2.7000000000000D-01  9.5574576176382D-02  1.6336617858484D+00
29  2.8000000000000D-01  1.2916558674762D-01  1.6444843792541D+00
30  2.9000000000000D-01  1.6425531321054D-01  1.6512216720734D+00
31  3.0000000000000D-01  2.0070048282621D-01  1.6539075264908D+00
32  3.1000000000000D-01  2.3835888622425D-01  1.6525839133808D+00
33  3.2000000000000D-01  2.7709113248739D-01  1.6473002414433D+00
34  3.3000000000000D-01  3.1676223641947D-01  1.6381127424903D+00
35  3.4000000000000D-01  3.5724301016322D-01  1.6250839244128D+00
36  3.5000000000000D-01  3.9841123478822D-01  1.6082821017705D+00
37  3.6000000000000D-01  4.4015259137564D-01  1.5877810121611D+00
38  3.7000000000000D-01  4.8236133542707D-01  1.5636595245756D+00
39  3.8000000000000D-01  5.2494070305364D-01  1.5360014438505D+00
40  3.9000000000000D-01  5.6780304228837D-01  1.5048954131350D+00
41  4.0000000000000D-01  6.1086966793193D-01  1.4704349140198D+00
42  4.1000000000000D-01  6.5407044350881D-01  1.4327183616833D+00
43  4.2000000000000D-01  6.9734309909327D-01  1.3918492901166D+00
44  4.3000000000000D-01  7.4063229887565D-01  1.3479366202512D+00
45  4.4000000000000D-01  7.8388847729555D-01  1.3010950016606D+00
46  4.5000000000000D-01  8.2706646727966D-01  1.2514452164783D+00
47  4.6000000000000D-01  8.7012394851031D-01  1.1991146323188D+00
48  4.7000000000000D-01  9.1301974763167D-01  1.1442376893279D+00
49  4.8000000000000D-01  9.5571202580349D-01  1.0869564050635D+00
50  4.9000000000000D-01  9.9815639196588D-01  1.0274208797556D+00
51  5.0000000000000D-01  1.0403039825246D+00  9.6578978362667D-01
52  5.1000000000000D-01  1.0820995498499D+00  9.0223080740526D-01
53  5.2000000000000D-01  1.1234796029647D+00  8.3692105695273D-01
54  5.3000000000000D-01  1.1643706440411D+00  7.7004737305282D-01
55  5.4000000000000D-01  1.2046875438178D+00  7.0180655790035D-01
56  5.5000000000000D-01  1.2443320977738D+00  6.3240549066619D-01
57  5.6000000000000D-01  1.2831918028587D+00  5.6206111571097D-01
58  5.7000000000000D-01  1.3211388918058D+00  4.9100028855092D-01
59  5.8000000000000D-01  1.3580296585474D+00  4.1945946654702D-01
60  5.9000000000000D-01  1.3937041040998D+00  3.4768423344453D-01
61  6.0000000000000D-01  1.4279859274711D+00  2.7592864934374D-01
62  6.1000000000000D-01  1.4606828808258D+00  2.0445442035420D-01
63  6.2000000000000D-01  1.4915875022805D+00  1.3352988509237D-01
64  6.3000000000000D-01  1.5204782335034D+00  6.3428818227177D-02
65  6.4000000000000D-01  1.5471209227531D+00 -5.5709455420568D-03
66  6.5000000000000D-01  1.5712707072461D+00 -7.3189060440800D-02
67  6.6000000000000D-01  1.5926742619422D+00 -1.3914438162271D-01
68  6.7000000000000D-01  1.6110723949955D+00 -2.0315682709792D-01
69  6.8000000000000D-01  1.6262029634398D+00 -2.6494937332859D-01
70  6.9000000000000D-01  1.6378040762259D+00 -3.2425016524137D-01
71  7.0000000000000D-01  1.6456175456381D+00 -3.8079471861183D-01
72  7.1000000000000D-01  1.6493925424607D+00 -4.3432819021899D-01
73  7.2000000000000D-01  1.6488894052054D+00 -4.8460768892524D-01
74  7.3000000000000D-01  1.6438835492909D+00 -5.3140459892400D-01
75  7.4000000000000D-01  1.6341694184093D+00 -5.7450688487653D-01
76  7.5000000000000D-01  1.6195644174699D+00 -6.1372134755083D-01
77  7.6000000000000D-01  1.5999127645788D+00 -6.4887579792313D-01
78  7.7000000000000D-01  1.5750891985195D+00 -6.7982111752096D-01
79  7.8000000000000D-01  1.5450024782027D+00 -7.0643317309577D-01
80  7.9000000000000D-01  1.5095986115630D+00 -7.2861455452181D-01
81  8.0000000000000D-01  1.4688637534189D+00 -7.4629610612732D-01
82  8.1000000000000D-01  1.4228267148631D+00 -7.5943822346853D-01
83  8.2000000000000D-01  1.3715610307920D+00 -7.6803188984067D-01
84  8.3000000000000D-01  1.3151865371795D+00 -7.7209942956306D-01
85  8.4000000000000D-01  1.2538704155832D+00 -7.7169495824211D-01
86  8.5000000000000D-01  1.1878276690819D+00 -7.6690451377423D-01
87  8.6000000000000D-01  1.1173210012890D+00 -7.5784585575587D-01
88  8.7000000000000D-01  1.0426600781584D+00 -7.4466792515865D-01
89  8.8000000000000D-01  9.6420016091104D-01 -7.2754996056653D-01
90  8.9000000000000D-01  8.8234010737768D-01 -7.0670027186274D-01
91  9.0000000000000D-01  7.9751974834388D-01 -6.8235467698103D-01
92  9.1000000000000D-01  7.1021665485008D-01 -6.5477461207697D-01
93  9.2000000000000D-01  6.2094232176977D-01 -6.2424493019277D-01
94  9.3000000000000D-01  5.3023780218771D-01 -5.9107140809880D-01
95  9.4000000000000D-01  4.3866883598804D-01 -5.5557798542588D-01
96  9.5000000000000D-01  3.4682052448998D-01 -5.1810376438355D-01
97  9.6000000000000D-01  2.5529161080093D-01 -4.7899980222249D-01
98  9.7000000000000D-01  1.6468843265658D-01 -4.3862573207927D-01
99  9.8000000000000D-01  7.5618620760759D-02 -3.9734625087722D-01
100  9.9000000000000D-01 -1.1315379070796D-02 -3.5552751550289D-01
101  1.0000000000000D+00 -9.5522877484696D-02 -3.1353349045329D-01
102  1.0100000000000D+00 -1.7643152132766D-01 -2.7172229156917D-01
103  1.0200000000000D+00 -2.5349379411692D-01 -2.3044257127492D-01
104  1.0300000000000D+00 -3.2619334930381D-01 -1.9002999087065D-01
105  1.0400000000000D+00 -3.9405108907144D-01 -1.5080382494348D-01
106  1.0500000000000D+00 -4.5663090350039D-01 -1.1306374178001D-01
107  1.0600000000000D+00 -5.1354498831890D-01 -7.7086801833383D-02
108  1.0700000000000D+00 -5.6445866372902D-01 -4.3124714030262D-02
109  1.0800000000000D+00 -6.0909462312694D-01 -1.1401386398055D-02
110  1.0900000000000D+00 -6.4723654706198D-01  1.7889195887790D-02
111  1.1000000000000D+00 -6.7873202635221D-01  4.4584736351346D-02
112  1.1100000000000D+00 -7.0349474650028D-01  6.8556012490760D-02
113  1.1200000000000D+00 -7.2150589569331D-01  8.9707861194472D-02
114  1.1300000000000D+00 -7.3281476948442D-01  1.0797975051817D-01
115  1.1400000000000D+00 -7.3753855615266D-01  1.2334592957748D-01
116  1.1500000000000D+00 -7.3586129776600D-01  1.3581515390290D-01
117  1.1600000000000D+00 -7.2803203316715D-01  1.4542998927266D-01
118  1.1700000000000D+00 -7.1436214229530D-01  1.5226570370446D-01
119  1.1800000000000D+00 -6.9522192222823D-01  1.5642876282224D-01
120  1.1900000000000D+00 -6.7103643445488D-01  1.5805494841816D-01
121  1.2000000000000D+00 -6.4228067632136D-01  1.5730712679717D-01
122  1.2100000000000D+00 -6.0947413893684D-01  1.5437269819245D-01
123  1.2200000000000D+00 -5.7317482248450D-01  1.4946076289728D-01
124  1.2300000000000D+00 -5.3397278694728D-01  1.4279904331222D-01
125  1.2400000000000D+00 -4.9248332705267D-01  1.3463060653383D-01
126  1.2500000000000D+00 -4.4933986332560D-01  1.2521043366732D-01
127  1.2600000000000D+00 -4.0518664584226D-01  1.1480188436692D-01
128  1.2700000000000D+00 -3.6067137888554D-01  1.0367311069315D-01
129  1.2800000000000D+00 -3.1643787198204D-01  9.2093473370338D-02
130  1.2900000000000D+00 -2.7311858506910D-01  8.0329905514735D-02
131  1.3000000000000D+00 -2.3132779796289D-01  6.8643561000390D-02
132  1.3100000000000D+00 -1.9165614660807D-01  5.7287070329066D-02
133  1.3200000000000D+00 -1.5465656799030D-01  4.6498008936488D-02
134  1.3300000000000D+00 -1.2083118768709D-01  3.6492745812222D-02
135  1.3400000000000D+00 -9.0617865236616D-02  2.7460096815680D-02
136  1.3500000000000D+00 -6.4385324841660D-02  1.9558807683438D-02
137  1.3600000000000D+00 -4.2443397947759D-02  1.2919887244729D-02
138  1.3700000000000D+00 -2.4962339000951D-02  7.6211983130933D-03
139  1.3800000000000D+00 -1.2063058881859D-02  3.7140398582840D-03
140  1.3900000000000D+00 -4.2241673952632D-03  1.3525195001167D-03
141  1.4000000000000D+00 -8.2250710594306D-04  3.2981384791382D-04
142  1.4100000000000D+00  5.3754406598299D-05  2.8450618449932D-05
143  1.4200000000000D+00 -7.7328023186039D-06  6.1368313763479D-07
144  1.4300000000000D+00 -4.5219813525980D-05  6.6804397341354D-06
145  1.4400000000000D+00  4.6594786388983D-06 -6.9025546893309D-08
146  1.4500000000000D+00  4.3189969075111D-06 -2.7614873547960D-07
147  1.4600000000000D+00  1.2366045591293D-06 -5.8339738010535D-07
148  1.4700000000000D+00  2.1299247980088D-07 -1.0048422818808D-07
149  1.4800000000000D+00  0.0000000000000D+00  0.0000000000000D+00
150  1.4900000000000D+00  0.0000000000000D+00  0.0000000000000D+00
151  1.5000000000000D+00  0.0000000000000D+00  0.0000000000000D+00
152  1.5100000000000D+00  0.0000000000000D+00  0.0000000000000D+00
153  1.5200000000000D+00  0.0000000000000D+00  0.0000000000000D+00
154  1.5300000000000D+00  0.0000000000000D+00  0.0000000000000D+00
155  1.5400000000000D+00  0.0000000000000D+00  0.0000000000000D+00
156  1.5500000000000D+00  0.0000000000000D+00  0.0000000000000D+00
157  1.5600000000000D+00  0.0000000000000D+00  0.0000000000000D+00
158  1.5700000000000D+00  0.0000000000000D+00  0.0000000000000D+00
159  1.5800000000000D+00  0.0000000000000D+00  0.0000000000000D+00
160  1.5900000000000D+00  0.0000000000000D+00  0.0000000000000D+00
161  1.6000000000000D+00  0.0000000000000D+00  0.0000000000000D+00
162  1.6100000000000D+00  0.0000000000000D+00  0.0000000000000D+00
163  1.6200000000000D+00  0.0000000000000D+00  0.0000000000000D+00
164  1.6300000000000D+00  0.0000000000000D+00  0.0000000000000D+00
165  1.6400000000000D+00  0.0000000000000D+00  0.0000000000000D+00
166  1.6500000000000D+00  0.0000000000000D+00  0.0000000000000D+00
167  1.6600000000000D+00  0.0000000000000D+00  0.0000000000000D+00
168  1.6700000000000D+00  0.0000000000000D+00  0.0000000000000D+00
169  1.6800000000000D+00  0.0000000000000D+00  0.0000000000000D+00
170  1.6900000000000D+00  0.0000000000000D+00  0.0000000000000D+00
171  1.7000000000000D+00  0.0000000000000D+00  0.0000000000000D+00
172  1.7100000000000D+00  0.0000000000000D+00  0.0000000000000D+00
173  1.7200000000000D+00  0.0000000000000D+00  0.0000000000000D+00
174  1.7300000000000D+00  0.0000000000000D+00  0.0000000000000D+00
175  1.7400000000000D+00  0.0000000000000D+00  0.0000000000000D+00
176  1.7500000000000D+00  0.0000000000000D+00  0.0000000000000D+00
177  1.7600000000000D+00  0.0000000000000D+00  0.0000000000000D+00
178  1.7700000000000D+00  0.0000000000000D+00  0.0000000000000D+00
179  1.7800000000000D+00  0.0000000000000D+00  0.0000000000000D+00
180  1.7900000000000D+00  0.0000000000000D+00  0.0000000000000D+00
181  1.8000000000000D+00  0.0000000000000D+00  0.0000000000000D+00
182  1.8100000000000D+00  0.0000000000000D+00  0.0000000000000D+00
183  1.8200000000000D+00  0.0000000000000D+00  0.0000000000000D+00
184  1.8300000000000D+00  0.0000000000000D+00  0.0000000000000D+00
185  1.8400000000000D+00  0.0000000000000D+00  0.0000000000000D+00
186  1.8500000000000D+00  0.0000000000000D+00  0.0000000000000D+00
187  1.8600000000000D+00  0.0000000000000D+00  0.0000000000000D+00
188  1.8700000000000D+00  0.0000000000000D+00  0.0000000000000D+00
189  1.8800000000000D+00  0.0000000000000D+00  0.0000000000000D+00
190  1.8900000000000D+00  0.0000000000000D+00  0.0000000000000D+00
191  1.9000000000000D+00  0.0000000000000D+00  0.0000000000000D+00
192  1.9100000000000D+00  0.0000000000000D+00  0.0000000000000D+00
193  1.9200000000000D+00  0.0000000000000D+00  0.0000000000000D+00
194  1.9300000000000D+00  0.0000000000000D+00  0.0000000000000D+00
195  1.9400000000000D+00  0.0000000000000D+00  0.0000000000000D+00
196  1.9500000000000D+00  0.0000000000000D+00  0.0000000000000D+00
197  1.9600000000000D+00  0.0000000000000D+00  0.0000000000000D+00
198  1.9700000000000D+00  0.0000000000000D+00  0.0000000000000D+00
199  1.9800000000000D+00  0.0000000000000D+00  0.0000000000000D+00
200  1.9900000000000D+00  0.0000000000000D+00  0.0000000000000D+00
201  2.0000000000000D+00  0.0000000000000D+00  0.0000000000000D+00
202  2.0100000000000D+00  0.0000000000000D+00  0.0000000000000D+00
203  2.0200000000000D+00  0.0000000000000D+00  0.0000000000000D+00
204  2.0300000000000D+00  0.0000000000000D+00  0.0000000000000D+00
205  2.0400000000000D+00  0.0000000000000D+00  0.0000000000000D+00
206  2.0500000000000D+00  0.0000000000000D+00  0.0000000000000D+00
207  2.0600000000000D+00  0.0000000000000D+00  0.0000000000000D+00
208  2.0700000000000D+00  0.0000000000000D+00  0.0000000000000D+00
209  2.0800000000000D+00  0.0000000000000D+00  0.0000000000000D+00
210  2.0900000000000D+00  0.0000000000000D+00  0.0000000000000D+00
211  2.1000000000000D+00  0.0000000000000D+00  0.0000000000000D+00
212  2.1100000000000D+00  0.0000000000000D+00  0.0000000000000D+00
213  2.1200000000000D+00  0.0000000000000D+00  0.0000000000000D+00
214  2.1300000000000D+00  0.0000000000000D+00  0.0000000000000D+00
215  2.1400000000000D+00  0.0000000000000D+00  0.0000000000000D+00
216  2.1500000000000D+00  0.0000000000000D+00  0.0000000000000D+00
217  2.1600000000000D+00  0.0000000000000D+00  0.0000000000000D+00
218  2.1700000000000D+00  0.0000000000000D+00  0.0000000000000D+00
219  2.1800000000000D+00  0.0000000000000D+00  0.0000000000000D+00
220  2.1900000000000D+00  0.0000000000000D+00  0.0000000000000D+00
221  2.2000000000000D+00  0.0000000000000D+00  0.0000000000000D+00
222  2.2100000000000D+00  0.0000000000000D+00  0.0000000000000D+00
223  2.2200000000000D+00  0.0000000000000D+00  0.0000000000000D+00
224  2.2300000000000D+00  0.0000000000000D+00  0.0000000000000D+00
225  2.2400000000000D+00  0.0000000000000D+00  0.0000000000000D+00
226  2.2500000000000D+00  0.0000000000000D+00  0.0000000000000D+00
227  2.2600000000000D+00  0.0000000000000D+00  0.0000000000000D+00
228  2.2700000000000D+00  0.0000000000000D+00  0.0000000000000D+00
229  2.2800000000000D+00  0.0000000000000D+00  0.0000000000000D+00
230  2.2900000000000D+00  0.0000000000000D+00  0.0000000000000D+00
231  2.3000000000000D+00  0.0000000000000D+00  0.0000000000000D+00
232  2.3100000000000D+00  0.0000000000000D+00  0.0000000000000D+00
233  2.3200000000000D+00  0.0000000000000D+00  0.0000000000000D+00
234  2.3300000000000D+00  0.0000000000000D+00  0.0000000000000D+00
235  2.3400000000000D+00  0.0000000000000D+00  0.0000000000000D+00
236  2.3500000000000D+00  0.0000000000000D+00  0.0000000000000D+00
237  2.3600000000000D+00  0.0000000000000D+00  0.0000000000000D+00
238  2.3700000000000D+00  0.0000000000000D+00  0.0000000000000D+00
239  2.3800000000000D+00  0.0000000000000D+00  0.0000000000000D+00
240  2.3900000000000D+00  0.0000000000000D+00  0.0000000000000D+00
241  2.4000000000000D+00  0.0000000000000D+00  0.0000000000000D+00
242  2.4100000000000D+00  0.0000000000000D+00  0.0000000000000D+00
243  2.4200000000000D+00  0.0000000000000D+00  0.0000000000000D+00
244  2.4300000000000D+00  0.0000000000000D+00  0.0000000000000D+00
245  2.4400000000000D+00  0.0000000000000D+00  0.0000000000000D+00
246  2.4500000000000D+00  0.0000000000000D+00  0.0000000000000D+00
247  2.4600000000000D+00  0.0000000000000D+00  0.0000000000000D+00
248  2.4700000000000D+00  0.0000000000000D+00  0.0000000000000D+00
249  2.4800000000000D+00  0.0000000000000D+00  0.0000000000000D+00
250  2.4900000000000D+00  0.0000000000000D+00  0.0000000000000D+00
251  2.5000000000000D+00  0.0000000000000D+00  0.0000000000000D+00
252  2.5100000000000D+00  0.0000000000000D+00  0.0000000000000D+00
253  2.5200000000000D+00  0.0000000000000D+00  0.0000000000000D+00
254  2.5300000000000D+00  0.0000000000000D+00  0.0000000000000D+00
255  2.5400000000000D+00  0.0000000000000D+00  0.0000000000000D+00
256  2.5500000000000D+00  0.0000000000000D+00  0.0000000000000D+00
257  2.5600000000000D+00  0.0000000000000D+00  0.0000000000000D+00
258  2.5700000000000D+00  0.0000000000000D+00  0.0000000000000D+00
259  2.5800000000000D+00  0.0000000000000D+00  0.0000000000000D+00
260  2.5900000000000D+00  0.0000000000000D+00  0.0000000000000D+00
261  2.6000000000000D+00  0.0000000000000D+00  0.0000000000000D+00
262  2.6100000000000D+00  0.0000000000000D+00  0.0000000000000D+00
263  2.6200000000000D+00  0.0000000000000D+00  0.0000000000000D+00
264  2.6300000000000D+00  0.0000000000000D+00  0.0000000000000D+00
265  2.6400000000000D+00  0.0000000000000D+00  0.0000000000000D+00
266  2.6500000000000D+00  0.0000000000000D+00  0.0000000000000D+00
267  2.6600000000000D+00  0.0000000000000D+00  0.0000000000000D+00
268  2.6700000000000D+00  0.0000000000000D+00  0.0000000000000D+00
269  2.6800000000000D+00  0.0000000000000D+00  0.0000000000000D+00
270  2.6900000000000D+00  0.0000000000000D+00  0.0000000000000D+00
271  2.7000000000000D+00  0.0000000000000D+00  0.0000000000000D+00
272  2.7100000000000D+00  0.0000000000000D+00  0.0000000000000D+00
273  2.7200000000000D+00  0.0000000000000D+00  0.0000000000000D+00
274  2.7300000000000D+00  0.0000000000000D+00  0.0000000000000D+00
275  2.7400000000000D+00  0.0000000000000D+00  0.0000000000000D+00
276  2.7500000000000D+00  0.0000000000000D+00  0.0000000000000D+00
277  2.7600000000000D+00  0.0000000000000D+00  0.0000000000000D+00
278  2.7700000000000D+00  0.0000000000000D+00  0.0000000000000D+00
279  2.7800000000000D+00  0.0000000000000D+00  0.0000000000000D+00
280  2.7900000000000D+00  0.0000000000000D+00  0.0000000000000D+00
281  2.8000000000000D+00  0.0000000000000D+00  0.0000000000000D+00
282  2.8100000000000D+00  0.0000000000000D+00  0.0000000000000D+00
283  2.8200000000000D+00  0.0000000000000D+00  0.0000000000000D+00
284  2.8300000000000D+00  0.0000000000000D+00  0.0000000000000D+00
285  2.8400000000000D+00  0.0000000000000D+00  0.0000000000000D+00
286  2.8500000000000D+00  0.0000000000000D+00  0.0000000000000D+00
287  2.8600000000000D+00  0.0000000000000D+00  0.0000000000000D+00
288  2.8700000000000D+00  0.0000000000000D+00  0.0000000000000D+00
289  2.8800000000000D+00  0.0000000000000D+00  0.0000000000000D+00
290  2.8900000000000D+00  0.0000000000000D+00  0.0000000000000D+00
291  2.9000000000000D+00  0.0000000000000D+00  0.0000000000000D+00
292  2.9100000000000D+00  0.0000000000000D+00  0.0000000000000D+00
293  2.9200000000000D+00  0.0000000000000D+00  0.0000000000000D+00
294  2.9300000000000D+00  0.0000000000000D+00  0.0000000000000D+00
295  2.9400000000000D+00  0.0000000000000D+00  0.0000000000000D+00
296  2.9500000000000D+00  0.0000000000000D+00  0.0000000000000D+00
297  2.9600000000000D+00  0.0000000000000D+00  0.0000000000000D+00
298  2.9700000000000D+00  0.0000000000000D+00  0.0000000000000D+00
299  2.9800000000000D+00  0.0000000000000D+00  0.0000000000000D+00
300  2.9900000000000D+00  0.0000000000000D+00  0.0000000000000D+00
301  3.0000000000000D+00  0.0000000000000D+00  0.0000000000000D+00
302  3.0100000000000D+00  0.0000000000000D+00  0.0000000000000D+00
303  3.0200000000000D+00  0.0000000000000D+00  0.0000000000000D+00
304  3.0300000000000D+00  0.0000000000000D+00  0.0000000000000D+00
305  3.0400000000000D+00  0.0000000000000D+00  0.0000000000000D+00
306  3.0500000000000D+00  0.0000000000000D+00  0.0000000000000D+00
307  3.0600000000000D+00  0.0000000000000D+00  0.0000000000000D+00
308  3.0700000000000D+00  0.0000000000000D+00  0.0000000000000D+00
309  3.0800000000000D+00  0.0000000000000D+00  0.0000000000000D+00
310  3.0900000000000D+00  0.0000000000000D+00  0.0000000000000D+00
311  3.1000000000000D+00  0.0000000000000D+00  0.0000000000000D+00
312  3.1100000000000D+00  0.0000000000000D+00  0.0000000000000D+00
313  3.1200000000000D+00  0.0000000000000D+00  0.0000000000000D+00
314  3.1300000000000D+00  0.0000000000000D+00  0.0000000000000D+00
315  3.1400000000000D+00  0.0000000000000D+00  0.0000000000000D+00
316  3.1500000000000D+00  0.0000000000000D+00  0.0000000000000D+00
317  3.1600000000000D+00  0.0000000000000D+00  0.0000000000000D+00
318  3.1700000000000D+00  0.0000000000000D+00  0.0000000000000D+00
319  3.1800000000000D+00  0.0000000000000D+00  0.0000000000000D+00
320  3.1900000000000D+00  0.0000000000000D+00  0.0000000000000D+00
321  3.2000000000000D+00  0.0000000000000D+00  0.0000000000000D+00
322  3.2100000000000D+00  0.0000000000000D+00  0.0000000000000D+00
323  3.2200000000000D+00  0.0000000000000D+00  0.0000000000000D+00
324  3.2300000000000D+00  0.0000000000000D+00  0.0000000000000D+00
325  3.2400000000000D+00  0.0000000000000D+00  0.0000000000000D+00
326  3.2500000000000D+00  0.0000000000000D+00  0.0000000000000D+00
327  3.2600000000000D+00  0.0000000000000D+00  0.0000000000000D+00
328  3.2700000000000D+00  0.0000000000000D+00  0.0000000000000D+00
329  3.2800000000000D+00  0.0000000000000D+00  0.0000000000000D+00
330  3.2900000000000D+00  0.0000000000000D+00  0.0000000000000D+00
331  3.3000000000000D+00  0.0000000000000D+00  0.0000000000000D+00
332  3.3100000000000D+00  0.0000000000000D+00  0.0000000000000D+00
333  3.3200000000000D+00  0.0000000000000D+00  0.0000000000000D+00
334  3.3300000000000D+00  0.0000000000000D+00  0.0000000000000D+00
335  3.3400000000000D+00  0.0000000000000D+00  0.0000000000000D+00
336  3.3500000000000D+00  0.0000000000000D+00  0.0000000000000D+00
337  3.3600000000000D+00  0.0000000000000D+00  0.0000000000000D+00
338  3.3700000000000D+00  0.0000000000000D+00  0.0000000000000D+00
339  3.3800000000000D+00  0.0000000000000D+00  0.0000000000000D+00
340  3.3900000000000D+00  0.0000000000000D+00  0.0000000000000D+00
341  3.4000000000000D+00  0.0000000000000D+00  0.0000000000000D+00
342  3.4100000000000D+00  0.0000000000000D+00  0.0000000000000D+00
343  3.4200000000000D+00  0.0000000000000D+00  0.0000000000000D+00
344  3.4300000000000D+00  0.0000000000000D+00  0.0000000000000D+00
345  3.4400000000000D+00  0.0000000000000D+00  0.0000000000000D+00
346  3.4500000000000D+00  0.0000000000000D+00  0.0000000000000D+00
347  3.4600000000000D+00  0.0000000000000D+00  0.0000000000000D+00
348  3.4700000000000D+00  0.0000000000000D+00  0.0000000000000D+00
349  3.4800000000000D+00  0.0000000000000D+00  0.0000000000000D+00
350  3.4900000000000D+00  0.0000000000000D+00  0.0000000000000D+00
351  3.5000000000000D+00  0.0000000000000D+00  0.0000000000000D+00
352  3.5100000000000D+00  0.0000000000000D+00  0.0000000000000D+00
353  3.5200000000000D+00  0.0000000000000D+00  0.0000000000000D+00
354  3.5300000000000D+00  0.0000000000000D+00  0.0000000000000D+00
355  3.5400000000000D+00  0.0000000000000D+00  0.0000000000000D+00
356  3.5500000000000D+00  0.0000000000000D+00  0.0000000000000D+00
357  3.5600000000000D+00  0.0000000000000D+00  0.0000000000000D+00
358  3.5700000000000D+00  0.0000000000000D+00  0.0000000000000D+00
359  3.5800000000000D+00  0.0000000000000D+00  0.0000000000000D+00
360  3.5900000000000D+00  0.0000000000000D+00  0.0000000000000D+00
361  3.6000000000000D+00  0.0000000000000D+00  0.0000000000000D+00
362  3.6100000000000D+00  0.0000000000000D+00  0.0000000000000D+00
363  3.6200000000000D+00  0.0000000000000D+00  0.0000000000000D+00
364  3.6300000000000D+00  0.0000000000000D+00  0.0000000000000D+00
365  3.6400000000000D+00  0.0000000000000D+00  0.0000000000000D+00
366  3.6500000000000D+00  0.0000000000000D+00  0.0000000000000D+00
367  3.6600000000000D+00  0.0000000000000D+00  0.0000000000000D+00
368  3.6700000000000D+00  0.0000000000000D+00  0.0000000000000D+00
369  3.6800000000000D+00  0.0000000000000D+00  0.0000000000000D+00
370  3.6900000000000D+00  0.0000000000000D+00  0.0000000000000D+00
371  3.7000000000000D+00  0.0000000000000D+00  0.0000000000000D+00
372  3.7100000000000D+00  0.0000000000000D+00  0.0000000000000D+00
373  3.7200000000000D+00  0.0000000000000D+00  0.0000000000000D+00
374  3.7300000000000D+00  0.0000000000000D+00  0.0000000000000D+00
375  3.7400000000000D+00  0.0000000000000D+00  0.0000000000000D+00
376  3.7500000000000D+00  0.0000000000000D+00  0.0000000000000D+00
377  3.7600000000000D+00  0.0000000000000D+00  0.0000000000000D+00
378  3.7700000000000D+00  0.0000000000000D+00  0.0000000000000D+00
379  3.7800000000000D+00  0.0000000000000D+00  0.0000000000000D+00
380  3.7900000000000D+00  0.0000000000000D+00  0.0000000000000D+00
381  3.8000000000000D+00  0.0000000000000D+00  0.0000000000000D+00
382  3.8100000000000D+00  0.0000000000000D+00  0.0000000000000D+00
383  3.8200000000000D+00  0.0000000000000D+00  0.0000000000000D+00
384  3.8300000000000D+00  0.0000000000000D+00  0.0000000000000D+00
385  3.8400000000000D+00  0.0000000000000D+00  0.0000000000000D+00
386  3.8500000000000D+00  0.0000000000000D+00  0.0000000000000D+00
387  3.8600000000000D+00  0.0000000000000D+00  0.0000000000000D+00
388  3.8700000000000D+00  0.0000000000000D+00  0.0000000000000D+00
389  3.8800000000000D+00  0.0000000000000D+00  0.0000000000000D+00
390  3.8900000000000D+00  0.0000000000000D+00  0.0000000000000D+00
391  3.9000000000000D+00  0.0000000000000D+00  0.0000000000000D+00
392  3.9100000000000D+00  0.0000000000000D+00  0.0000000000000D+00
393  3.9200000000000D+00  0.0000000000000D+00  0.0000000000000D+00
394  3.9300000000000D+00  0.0000000000000D+00  0.0000000000000D+00
395  3.9400000000000D+00  0.0000000000000D+00  0.0000000000000D+00
396  3.9500000000000D+00  0.0000000000000D+00  0.0000000000000D+00
397  3.9600000000000D+00  0.0000000000000D+00  0.0000000000000D+00
398  3.9700000000000D+00  0.0000000000000D+00  0.0000000000000D+00
399  3.9800000000000D+00  0.0000000000000D+00  0.0000000000000D+00
400  3.9900000000000D+00  0.0000000000000D+00  0.0000000000000D+00
401  4.0000000000000D+00  0.0000000000000D+00  0.0000000000000D+00
402  4.0100000000000D+00  0.0000000000000D+00  0.0000000000000D+00
403  4.0200000000000D+00  0.0000000000000D+00  0.0000000000000D+00
404  4.0300000000000D+00  0.0000000000000D+00  0.0000000000000D+00
405  4.0400000000000D+00  0.0000000000000D+00  0.0000000000000D+00
406  4.0500000000000D+00  0.0000000000000D+00  0.0000000000000D+00
407  4.0600000000000D+00  0.0000000000000D+00  0.0000000000000D+00
408  4.0700000000000D+00  0.0000000000000D+00  0.0000000000000D+00
409  4.0800000000000D+00  0.0000000000000D+00  0.0000000000000D+00
410  4.0900000000000D+00  0.0000000000000D+00  0.0000000000000D+00
411  4.1000000000000D+00  0.0000000000000D+00  0.0000000000000D+00
412  4.1100000000000D+00  0.0000000000000D+00  0.0000000000000D+00
413  4.1200000000000D+00  0.0000000000000D+00  0.0000000000000D+00
414  4.1300000000000D+00  0.0000000000000D+00  0.0000000000000D+00
415  4.1400000000000D+00  0.0000000000000D+00  0.0000000000000D+00
416  4.1500000000000D+00  0.0000000000000D+00  0.0000000000000D+00
417  4.1600000000000D+00  0.0000000000000D+00  0.0000000000000D+00
418  4.1700000000000D+00  0.0000000000000D+00  0.0000000000000D+00
419  4.1800000000000D+00  0.0000000000000D+00  0.0000000000000D+00
420  4.1900000000000D+00  0.0000000000000D+00  0.0000000000000D+00
421  4.2000000000000D+00  0.0000000000000D+00  0.0000000000000D+00
422  4.2100000000000D+00  0.0000000000000D+00  0.0000000000000D+00
423  4.2200000000000D+00  0.0000000000000D+00  0.0000000000000D+00
424  4.2300000000000D+00  0.0000000000000D+00  0.0000000000000D+00
425  4.2400000000000D+00  0.0000000000000D+00  0.0000000000000D+00
426  4.2500000000000D+00  0.0000000000000D+00  0.0000000000000D+00
427  4.2600000000000D+00  0.0000000000000D+00  0.0000000000000D+00
428  4.2700000000000D+00  0.0000000000000D+00  0.0000000000000D+00
429  4.2800000000000D+00  0.0000000000000D+00  0.0000000000000D+00
430  4.2900000000000D+00  0.0000000000000D+00  0.0000000000000D+00
431  4.3000000000000D+00  0.0000000000000D+00  0.0000000000000D+00
432  4.3100000000000D+00  0.0000000000000D+00  0.0000000000000D+00
433  4.3200000000000D+00  0.0000000000000D+00  0.0000000000000D+00
434  4.3300000000000D+00  0.0000000000000D+00  0.0000000000000D+00
435  4.3400000000000D+00  0.0000000000000D+00  0.0000000000000D+00
436  4.3500000000000D+00  0.0000000000000D+00  0.0000000000000D+00
437  4.3600000000000D+00  0.0000000000000D+00  0.0000000000000D+00
438  4.3700000000000D+00  0.0000000000000D+00  0.0000000000000D+00
439  4.3800000000000D+00  0.0000000000000D+00  0.0000000000000D+00
440  4.3900000000000D+00  0.0000000000000D+00  0.0000000000000D+00
441  4.4000000000000D+00  0.0000000000000D+00  0.0000000000000D+00
442  4.4100000000000D+00  0.0000000000000D+00  0.0000000000000D+00
443  4.4200000000000D+00  0.0000000000000D+00  0.0000000000000D+00