Pt    ONCVPSP-3.3.0  r_core=   1.45722   1.45722   1.45722   1.91724
78.0000     18.0000      180430    zatom,zion,pspd
8 -116133   3     4   500     0    pspcod,pspxc,lmax,lloc,mmax,r2well
4.99000000  5.00000000  0.00000000    rchrg fchrg qchrg
2     4     4     4    nproj
3     1           extension_switch
4     4     4    nprojso
0                         1.7299554683698D+00  1.8038422097233D+01
1  0.0000000000000D+00  1.9555237984470D-10 -3.6671410352795D-10
2  1.0000000000000D-02 -1.9627180981792D-02  8.1664699005384D-02
3  2.0000000000000D-02 -3.9142929948788D-02  1.6312874769415D-01
4  3.0000000000000D-02 -5.8436071461248D-02  2.4419214162194D-01
5  4.0000000000000D-02 -7.7395928202447D-02  3.2465616088503D-01
6  5.0000000000000D-02 -9.5912545892010D-02  4.0432399717694D-01
7  6.0000000000000D-02 -1.1387690317860D-01  4.8300136572157D-01
8  7.0000000000000D-02 -1.3118110837603D-01  5.6049709892414D-01
9  8.0000000000000D-02 -1.4771858510251D-01  6.3662371894778D-01
10  9.0000000000000D-02 -1.6338424907035D-01  7.1119798680805D-01
11  1.0000000000000D-01 -1.7807467844481D-01  7.8404142597220D-01
12  1.1000000000000D-01 -1.9168828033957D-01  8.5498081884832D-01
13  1.2000000000000D-01 -2.0412545613496D-01  9.2384867494510D-01
14  1.3000000000000D-01 -2.1528876838806D-01  9.9048366986889D-01
15  1.4000000000000D-01 -2.2508311214682D-01  1.0547310546963D+00
16  1.5000000000000D-01 -2.3341589347699D-01  1.1164430356109D+00
17  1.6000000000000D-01 -2.4019721796021D-01  1.1754791240194D+00
18  1.7000000000000D-01 -2.4534009181849D-01  1.2317064576564D+00
19  1.8000000000000D-01 -2.4876063816561D-01  1.2850000934520D+00
20  1.9000000000000D-01 -2.5037833067665D-01  1.3352432731599D+00
21  2.0000000000000D-01 -2.5011624670478D-01  1.3823276629327D+00
22  2.1000000000000D-01 -2.4790134155976D-01  1.4261535681757D+00
23  2.2000000000000D-01 -2.4366474529741D-01  1.4666301251147D+00
24  2.3000000000000D-01 -2.3734208295741D-01  1.5036754705748D+00
25  2.4000000000000D-01 -2.2887381873069D-01  1.5372168914868D+00
26  2.5000000000000D-01 -2.1820562404311D-01  1.5671909556131D+00
27  2.6000000000000D-01 -2.0528876901368D-01  1.5935436249243D+00
28  2.7000000000000D-01 -1.9008053618999D-01  1.6162303529554D+00
29  2.8000000000000D-01 -1.7254465488696D-01  1.6352161673351D+00
30  2.9000000000000D-01 -1.5265175386493D-01  1.6504757385112D+00
31  3.0000000000000D-01 -1.3037982948772D-01  1.6619934355007D+00
32  3.1000000000000D-01 -1.0571472590792D-01  1.6697633692674D+00
33  3.2000000000000D-01 -7.8650623244052D-02  1.6737894240922D+00
34  3.3000000000000D-01 -4.9190529152043D-02  1.6740852770401D+00
35  3.4000000000000D-01 -1.7346768657797D-02  1.6706744053637D+00
36  3.5000000000000D-01  1.6858533379153D-02  1.6635900814083D+00
37  3.6000000000000D-01  5.3392983254026D-02  1.6528753543137D+00
38  3.7000000000000D-01  9.2213469338531D-02  1.6385830175403D+00
39  3.8000000000000D-01  1.3326573975418D-01  1.6207755609937D+00
40  3.9000000000000D-01  1.7648401388311D-01  1.5995251062834D+00
41  4.0000000000000D-01  2.2179063499361D-01  1.5749133234345D+00
42  4.1000000000000D-01  2.6909577136650D-01  1.5470313271824D+00
43  4.2000000000000D-01  3.1829717332988D-01  1.5159795508214D+00
44  4.3000000000000D-01  3.6927999353746D-01  1.4818675954558D+00
45  4.4000000000000D-01  4.2191667765893D-01  1.4448140524176D+00
46  4.5000000000000D-01  4.7606693238337D-01  1.4049462965743D+00
47  4.6000000000000D-01  5.3157777727028D-01  1.3624002482536D+00
48  4.7000000000000D-01  5.8828368651489D-01  1.3173201015646D+00
49  4.8000000000000D-01  6.4600682612724D-01  1.2698580169914D+00
50  4.9000000000000D-01  7.0455739135910D-01  1.2201737762905D+00
51  5.0000000000000D-01  7.6373404845371D-01  1.1684343979168D+00
52  5.1000000000000D-01  8.2332448394416D-01  1.1148137114549D+00
53  5.2000000000000D-01  8.8310606379382D-01  1.0594918898271D+00
54  5.3000000000000D-01  9.4284660366308D-01  1.0026549383917D+00
55  5.4000000000000D-01  1.0023052505108D+00  9.4449414042742D-01
56  5.5000000000000D-01  1.0612334746022D+00  8.8520545892677D-01
57  5.6000000000000D-01  1.1193761698145D+00  8.2498889507520D-01
58  5.7000000000000D-01  1.1764728589106D+00  7.6404780428520D-01
59  5.8000000000000D-01  1.2322589992127D+00  7.0258817116539D-01
60  5.9000000000000D-01  1.2864673828537D+00  6.4081784533734D-01
61  6.0000000000000D-01  1.3388296245377D+00  5.7894574055753D-01
62  6.1000000000000D-01  1.3890777285149D+00  5.1718100015065D-01
63  6.2000000000000D-01  1.4369457252787D+00  4.5573213230899D-01
64  6.3000000000000D-01  1.4821713673495D+00  3.9480611935217D-01
65  6.4000000000000D-01  1.5244978724279D+00  3.3460750556176D-01
66  6.5000000000000D-01  1.5636757011969D+00  2.7533746870571D-01
67  6.6000000000000D-01  1.5994643561442D+00  2.1719288083268D-01
68  6.7000000000000D-01  1.6316341869753D+00  1.6036536434258D-01
69  6.8000000000000D-01  1.6599681875051D+00  1.0504034972245D-01
70  6.9000000000000D-01  1.6842637683709D+00  5.1396141663327D-02
71  7.0000000000000D-01  1.7043344895041D+00 -3.9699945745171D-04
72  7.1000000000000D-01  1.7200117360507D+00 -5.0177753540704D-02
73  7.2000000000000D-01  1.7311463213421D+00 -9.7794606855166D-02
74  7.3000000000000D-01  1.7376100006007D+00 -1.4310668087289D-01
75  7.4000000000000D-01  1.7392968793227D+00 -1.8598451649016D-01
76  7.5000000000000D-01  1.7361247007118D+00 -2.2631080637389D-01
77  7.6000000000000D-01  1.7280359971515D+00 -2.6398106835595D-01
78  7.7000000000000D-01  1.7149990914907D+00 -2.9890425306490D-01
79  7.8000000000000D-01  1.6970089348830D+00 -3.3100327933294D-01
80  7.9000000000000D-01  1.6740877690486D+00 -3.6021549134672D-01
81  8.0000000000000D-01  1.6462856021220D+00 -3.8649303202049D-01
82  8.1000000000000D-01  1.6136804886913D+00 -4.0980312765546D-01
83  8.2000000000000D-01  1.5763786062174D+00 -4.3012827960548D-01
84  8.3000000000000D-01  1.5345141217289D+00 -4.4746635939083D-01
85  8.4000000000000D-01  1.4882488445067D+00 -4.6183060448243D-01
86  8.5000000000000D-01  1.4377716623785D+00 -4.7324951281013D-01
87  8.6000000000000D-01  1.3832977612242D+00 -4.8176663492310D-01
88  8.7000000000000D-01  1.3250676293280D+00 -4.8744026363765D-01
89  8.8000000000000D-01  1.2633458502661D+00 -4.9034302193931D-01
90  8.9000000000000D-01  1.1984196900945D+00 -4.9056135085002D-01
91  9.0000000000000D-01  1.1305974866402D+00 -4.8819489991727D-01
92  9.1000000000000D-01  1.0602068507113D+00 -4.8335582391961D-01
93  9.2000000000000D-01  9.8759269097807D-01 -4.7616799029857D-01
94  9.3000000000000D-01  9.1311507611983D-01 -4.6676610271170D-01
95  9.4000000000000D-01  8.3714694957050D-01 -4.5529474694152D-01
96  9.5000000000000D-01  7.6007171378031D-01 -4.4190736618065D-01
97  9.6000000000000D-01  6.8228070234576D-01 -4.2676517343352D-01
98  9.7000000000000D-01  6.0417055960467D-01 -4.1003600941826D-01
99  9.8000000000000D-01  5.2614054834560D-01 -3.9189315491494D-01
100  9.9000000000000D-01  4.4858980708773D-01 -3.7251410695874D-01
101  1.0000000000000D+00  3.7191457900803D-01 -3.5207932865578D-01
102  1.0100000000000D+00  2.9650543491514D-01 -3.3077098264039D-01
103  1.0200000000000D+00  2.2274451276429D-01 -3.0877165833662D-01
104  1.0300000000000D+00  1.5100279603430D-01 -2.8626310320882D-01
105  1.0400000000000D+00  8.1637452824295D-02 -2.6342496808029D-01
106  1.0500000000000D+00  1.4989256827500D-02 -2.4043357638043D-01
107  1.0600000000000D+00 -4.8619889618192D-02 -2.1746072684794D-01
108  1.0700000000000D+00 -1.0888931150666D-01 -1.9467253872831D-01
109  1.0800000000000D+00 -1.6554177870320D-01 -1.7222834794614D-01
110  1.0900000000000D+00 -2.1832556941188D-01 -1.5027966200002D-01
111  1.1000000000000D+00 -2.6701636578096D-01 -1.2896918057304D-01
112  1.1100000000000D+00 -3.1141897003616D-01 -1.0842988794963D-01
113  1.1200000000000D+00 -3.5136883200261D-01 -8.8784222287207D-02
114  1.1300000000000D+00 -3.8673338128344D-01 -7.0143325766822D-02
115  1.1400000000000D+00 -4.1741316012064D-01 -5.2606378460882D-02
116  1.1500000000000D+00 -4.4334275530382D-01 -3.6260017746444D-02
117  1.1600000000000D+00 -4.6449153094720D-01 -2.1177843583291D-02
118  1.1700000000000D+00 -4.8086416646394D-01 -7.4200088698245D-03
119  1.1800000000000D+00 -4.9250100684924D-01  4.9671071408690D-03
120  1.1900000000000D+00 -4.9947823519479D-01  1.5951145631196D-02
121  1.2000000000000D+00 -5.0190788051987D-01  2.5513939903137D-02
122  1.2100000000000D+00 -4.9993767663649D-01  3.3651617841244D-02
123  1.2200000000000D+00 -4.9375078927242D-01  4.0374641716200D-02
124  1.2300000000000D+00 -4.8356543267536D-01  4.5707793725463D-02
125  1.2400000000000D+00 -4.6963439821320D-01  4.9690116284727D-02
126  1.2500000000000D+00 -4.5224451905333D-01  5.2374816810021D-02
127  1.2600000000000D+00 -4.3171609758833D-01  5.3829147951371D-02
128  1.2700000000000D+00 -4.0840235137856D-01  5.4134284552168D-02
129  1.2800000000000D+00 -3.8268878174822D-01  5.3385166370650D-02
130  1.2900000000000D+00 -3.5499270596035D-01  5.1690390453768D-02
131  1.3000000000000D+00 -3.2576184638054D-01  4.9171773980113D-02
132  1.3100000000000D+00 -2.9547882353015D-01  4.5965970729576D-02
133  1.3200000000000D+00 -2.6464843527831D-01  4.2220102572126D-02
134  1.3300000000000D+00 -2.3377717358612D-01  3.8084648155656D-02
135  1.3400000000000D+00 -2.0335064055798D-01  3.3705336935257D-02
136  1.3500000000000D+00 -1.7382219025207D-01  2.9218904769823D-02
137  1.3600000000000D+00 -1.4561433714128D-01  2.4753222627563D-02
138  1.3700000000000D+00 -1.1911393866001D-01  2.0425322243556D-02
139  1.3800000000000D+00 -9.4669737523848D-02  1.6340246059219D-02
140  1.3900000000000D+00 -7.2589655289296D-02  1.2589836486058D-02
141  1.4000000000000D+00 -5.3138583748473D-02  9.2517229960404D-03
142  1.4100000000000D+00 -3.6543613581751D-02  6.3897462073252D-03
143  1.4200000000000D+00 -2.2963335034842D-02  4.0479030752036D-03
144  1.4300000000000D+00 -1.2456894587825D-02  2.2432782836068D-03
145  1.4400000000000D+00 -5.3214683246102D-03  1.0328517881168D-03
146  1.4500000000000D+00 -1.6492178415521D-03  4.2925355809958D-04
147  1.4600000000000D+00 -2.9093497888818D-04  1.7181387511827D-04
148  1.4700000000000D+00  5.0379200106023D-06  3.5190409055326D-05
149  1.4800000000000D+00 -1.4731019161683D-05 -1.1541128653102D-05
150  1.4900000000000D+00 -8.5479653858361D-06 -3.6272812822013D-06
151  1.5000000000000D+00  9.8449373661768D-07  3.2010380589599D-06
152  1.5100000000000D+00  9.1260347024239D-08  1.4971257696554D-07
153  1.5200000000000D+00  1.4669204963113D-06 -6.3960239473758D-07
154  1.5300000000000D+00  0.0000000000000D+00  0.0000000000000D+00
155  1.5400000000000D+00  0.0000000000000D+00  0.0000000000000D+00
156  1.5500000000000D+00  0.0000000000000D+00  0.0000000000000D+00
157  1.5600000000000D+00  0.0000000000000D+00  0.0000000000000D+00
158  1.5700000000000D+00  0.0000000000000D+00  0.0000000000000D+00
159  1.5800000000000D+00  0.0000000000000D+00  0.0000000000000D+00
160  1.5900000000000D+00  0.0000000000000D+00  0.0000000000000D+00
161  1.6000000000000D+00  0.0000000000000D+00  0.0000000000000D+00
162  1.6100000000000D+00  0.0000000000000D+00  0.0000000000000D+00
163  1.6200000000000D+00  0.0000000000000D+00  0.0000000000000D+00
164  1.6300000000000D+00  0.0000000000000D+00  0.0000000000000D+00
165  1.6400000000000D+00  0.0000000000000D+00  0.0000000000000D+00
166  1.6500000000000D+00  0.0000000000000D+00  0.0000000000000D+00
167  1.6600000000000D+00  0.0000000000000D+00  0.0000000000000D+00
168  1.6700000000000D+00  0.0000000000000D+00  0.0000000000000D+00
169  1.6800000000000D+00  0.0000000000000D+00  0.0000000000000D+00
170  1.6900000000000D+00  0.0000000000000D+00  0.0000000000000D+00
171  1.7000000000000D+00  0.0000000000000D+00  0.0000000000000D+00
172  1.7100000000000D+00  0.0000000000000D+00  0.0000000000000D+00
173  1.7200000000000D+00  0.0000000000000D+00  0.0000000000000D+00
174  1.7300000000000D+00  0.0000000000000D+00  0.0000000000000D+00
175  1.7400000000000D+00  0.0000000000000D+00  0.0000000000000D+00
176  1.7500000000000D+00  0.0000000000000D+00  0.0000000000000D+00
177  1.7600000000000D+00  0.0000000000000D+00  0.0000000000000D+00
178  1.7700000000000D+00  0.0000000000000D+00  0.0000000000000D+00
179  1.7800000000000D+00  0.0000000000000D+00  0.0000000000000D+00
180  1.7900000000000D+00  0.0000000000000D+00  0.0000000000000D+00
181  1.8000000000000D+00  0.0000000000000D+00  0.0000000000000D+00
182  1.8100000000000D+00  0.0000000000000D+00  0.0000000000000D+00
183  1.8200000000000D+00  0.0000000000000D+00  0.0000000000000D+00
184  1.8300000000000D+00  0.0000000000000D+00  0.0000000000000D+00
185  1.8400000000000D+00  0.0000000000000D+00  0.0000000000000D+00
186  1.8500000000000D+00  0.0000000000000D+00  0.0000000000000D+00
187  1.8600000000000D+00  0.0000000000000D+00  0.0000000000000D+00
188  1.8700000000000D+00  0.0000000000000D+00  0.0000000000000D+00
189  1.8800000000000D+00  0.0000000000000D+00  0.0000000000000D+00
190  1.8900000000000D+00  0.0000000000000D+00  0.0000000000000D+00
191  1.9000000000000D+00  0.0000000000000D+00  0.0000000000000D+00
192  1.9100000000000D+00  0.0000000000000D+00  0.0000000000000D+00
193  1.9200000000000D+00  0.0000000000000D+00  0.0000000000000D+00
194  1.9300000000000D+00  0.0000000000000D+00  0.0000000000000D+00
195  1.9400000000000D+00  0.0000000000000D+00  0.0000000000000D+00
196  1.9500000000000D+00  0.0000000000000D+00  0.0000000000000D+00
197  1.9600000000000D+00  0.0000000000000D+00  0.0000000000000D+00
198  1.9700000000000D+00  0.0000000000000D+00  0.0000000000000D+00
199  1.9800000000000D+00  0.0000000000000D+00  0.0000000000000D+00
200  1.9900000000000D+00  0.0000000000000D+00  0.0000000000000D+00
201  2.0000000000000D+00  0.0000000000000D+00  0.0000000000000D+00
202  2.0100000000000D+00  0.0000000000000D+00  0.0000000000000D+00
203  2.0200000000000D+00  0.0000000000000D+00  0.0000000000000D+00
204  2.0300000000000D+00  0.0000000000000D+00  0.0000000000000D+00
205  2.0400000000000D+00  0.0000000000000D+00  0.0000000000000D+00
206  2.0500000000000D+00  0.0000000000000D+00  0.0000000000000D+00
207  2.0600000000000D+00  0.0000000000000D+00  0.0000000000000D+00
208  2.0700000000000D+00  0.0000000000000D+00  0.0000000000000D+00
209  2.0800000000000D+00  0.0000000000000D+00  0.0000000000000D+00
210  2.0900000000000D+00  0.0000000000000D+00  0.0000000000000D+00
211  2.1000000000000D+00  0.0000000000000D+00  0.0000000000000D+00
212  2.1100000000000D+00  0.0000000000000D+00  0.0000000000000D+00
213  2.1200000000000D+00  0.0000000000000D+00  0.0000000000000D+00
214  2.1300000000000D+00  0.0000000000000D+00  0.0000000000000D+00
215  2.1400000000000D+00  0.0000000000000D+00  0.0000000000000D+00
216  2.1500000000000D+00  0.0000000000000D+00  0.0000000000000D+00
217  2.1600000000000D+00  0.0000000000000D+00  0.0000000000000D+00
218  2.1700000000000D+00  0.0000000000000D+00  0.0000000000000D+00
219  2.1800000000000D+00  0.0000000000000D+00  0.0000000000000D+00
220  2.1900000000000D+00  0.0000000000000D+00  0.0000000000000D+00
221  2.2000000000000D+00  0.0000000000000D+00  0.0000000000000D+00
222  2.2100000000000D+00  0.0000000000000D+00  0.0000000000000D+00
223  2.2200000000000D+00  0.0000000000000D+00  0.0000000000000D+00
224  2.2300000000000D+00  0.0000000000000D+00  0.0000000000000D+00
225  2.2400000000000D+00  0.0000000000000D+00  0.0000000000000D+00
226  2.2500000000000D+00  0.0000000000000D+00  0.0000000000000D+00
227  2.2600000000000D+00  0.0000000000000D+00  0.0000000000000D+00
228  2.2700000000000D+00  0.0000000000000D+00  0.0000000000000D+00
229  2.2800000000000D+00  0.0000000000000D+00  0.0000000000000D+00
230  2.2900000000000D+00  0.0000000000000D+00  0.0000000000000D+00
231  2.3000000000000D+00  0.0000000000000D+00  0.0000000000000D+00
232  2.3100000000000D+00  0.0000000000000D+00  0.0000000000000D+00
233  2.3200000000000D+00  0.0000000000000D+00  0.0000000000000D+00
234  2.3300000000000D+00  0.0000000000000D+00  0.0000000000000D+00
235  2.3400000000000D+00  0.0000000000000D+00  0.0000000000000D+00
236  2.3500000000000D+00  0.0000000000000D+00  0.0000000000000D+00
237  2.3600000000000D+00  0.0000000000000D+00  0.0000000000000D+00
238  2.3700000000000D+00  0.0000000000000D+00  0.0000000000000D+00
239  2.3800000000000D+00  0.0000000000000D+00  0.0000000000000D+00
240  2.3900000000000D+00  0.0000000000000D+00  0.0000000000000D+00
241  2.4000000000000D+00  0.0000000000000D+00  0.0000000000000D+00
242  2.4100000000000D+00  0.0000000000000D+00  0.0000000000000D+00
243  2.4200000000000D+00  0.0000000000000D+00  0.0000000000000D+00
244  2.4300000000000D+00  0.0000000000000D+00  0.0000000000000D+00
245  2.4400000000000D+00  0.0000000000000D+00  0.0000000000000D+00
246  2.4500000000000D+00  0.0000000000000D+00  0.0000000000000D+00
247  2.4600000000000D+00  0.0000000000000D+00  0.0000000000000D+00
248  2.4700000000000D+00  0.0000000000000D+00  0.0000000000000D+00
249  2.4800000000000D+00  0.0000000000000D+00  0.0000000000000D+00
250  2.4900000000000D+00  0.0000000000000D+00  0.0000000000000D+00
251  2.5000000000000D+00  0.0000000000000D+00  0.0000000000000D+00
252  2.5100000000000D+00  0.0000000000000D+00  0.0000000000000D+00
253  2.5200000000000D+00  0.0000000000000D+00  0.0000000000000D+00
254  2.5300000000000D+00  0.0000000000000D+00  0.0000000000000D+00
255  2.5400000000000D+00  0.0000000000000D+00  0.0000000000000D+00
256  2.5500000000000D+00  0.0000000000000D+00  0.0000000000000D+00
257  2.5600000000000D+00  0.0000000000000D+00  0.0000000000000D+00
258  2.5700000000000D+00  0.0000000000000D+00  0.0000000000000D+00
259  2.5800000000000D+00  0.0000000000000D+00  0.0000000000000D+00
260  2.5900000000000D+00  0.0000000000000D+00  0.0000000000000D+00
261  2.6000000000000D+00  0.0000000000000D+00  0.0000000000000D+00
262  2.6100000000000D+00  0.0000000000000D+00  0.0000000000000D+00
263  2.6200000000000D+00  0.0000000000000D+00  0.0000000000000D+00
264  2.6300000000000D+00  0.0000000000000D+00  0.0000000000000D+00
265  2.6400000000000D+00  0.0000000000000D+00  0.0000000000000D+00
266  2.6500000000000D+00  0.0000000000000D+00  0.0000000000000D+00
267  2.6600000000000D+00  0.0000000000000D+00  0.0000000000000D+00
268  2.6700000000000D+00  0.0000000000000D+00  0.0000000000000D+00
269  2.6800000000000D+00  0.0000000000000D+00  0.0000000000000D+00
270  2.6900000000000D+00  0.0000000000000D+00  0.0000000000000D+00
271  2.7000000000000D+00  0.0000000000000D+00  0.0000000000000D+00
272  2.7100000000000D+00  0.0000000000000D+00  0.0000000000000D+00
273  2.7200000000000D+00  0.0000000000000D+00  0.0000000000000D+00
274  2.7300000000000D+00  0.0000000000000D+00  0.0000000000000D+00
275  2.7400000000000D+00  0.0000000000000D+00  0.0000000000000D+00
276  2.7500000000000D+00  0.0000000000000D+00  0.0000000000000D+00
277  2.7600000000000D+00  0.0000000000000D+00  0.0000000000000D+00
278  2.7700000000000D+00  0.0000000000000D+00  0.0000000000000D+00
279  2.7800000000000D+00  0.0000000000000D+00  0.0000000000000D+00
280  2.7900000000000D+00  0.0000000000000D+00  0.0000000000000D+00
281  2.8000000000000D+00  0.0000000000000D+00  0.0000000000000D+00
282  2.8100000000000D+00  0.0000000000000D+00  0.0000000000000D+00
283  2.8200000000000D+00  0.0000000000000D+00  0.0000000000000D+00
284  2.8300000000000D+00  0.0000000000000D+00  0.0000000000000D+00
285  2.8400000000000D+00  0.0000000000000D+00  0.0000000000000D+00
286  2.8500000000000D+00  0.0000000000000D+00  0.0000000000000D+00
287  2.8600000000000D+00  0.0000000000000D+00  0.0000000000000D+00
288  2.8700000000000D+00  0.0000000000000D+00  0.0000000000000D+00
289  2.8800000000000D+00  0.0000000000000D+00  0.0000000000000D+00
290  2.8900000000000D+00  0.0000000000000D+00  0.0000000000000D+00
291  2.9000000000000D+00  0.0000000000000D+00  0.0000000000000D+00
292  2.9100000000000D+00  0.0000000000000D+00  0.0000000000000D+00
293  2.9200000000000D+00  0.0000000000000D+00  0.0000000000000D+00
294  2.9300000000000D+00  0.0000000000000D+00  0.0000000000000D+00
295  2.9400000000000D+00  0.0000000000000D+00  0.0000000000000D+00
296  2.9500000000000D+00  0.0000000000000D+00  0.0000000000000D+00
297  2.9600000000000D+00  0.0000000000000D+00  0.0000000000000D+00
298  2.9700000000000D+00  0.0000000000000D+00  0.0000000000000D+00
299  2.9800000000000D+00  0.0000000000000D+00  0.0000000000000D+00
300  2.9900000000000D+00  0.0000000000000D+00  0.0000000000000D+00
301  3.0000000000000D+00  0.0000000000000D+00  0.0000000000000D+00
302  3.0100000000000D+00  0.0000000000000D+00  0.0000000000000D+00
303  3.0200000000000D+00  0.0000000000000D+00  0.0000000000000D+00
304  3.0300000000000D+00  0.0000000000000D+00  0.0000000000000D+00
305  3.0400000000000D+00  0.0000000000000D+00  0.0000000000000D+00
306  3.0500000000000D+00  0.0000000000000D+00  0.0000000000000D+00
307  3.0600000000000D+00  0.0000000000000D+00  0.0000000000000D+00
308  3.0700000000000D+00  0.0000000000000D+00  0.0000000000000D+00
309  3.0800000000000D+00  0.0000000000000D+00  0.0000000000000D+00
310  3.0900000000000D+00  0.0000000000000D+00  0.0000000000000D+00
311  3.1000000000000D+00  0.0000000000000D+00  0.0000000000000D+00
312  3.1100000000000D+00  0.0000000000000D+00  0.0000000000000D+00
313  3.1200000000000D+00  0.0000000000000D+00  0.0000000000000D+00
314  3.1300000000000D+00  0.0000000000000D+00  0.0000000000000D+00
315  3.1400000000000D+00  0.0000000000000D+00  0.0000000000000D+00
316  3.1500000000000D+00  0.0000000000000D+00  0.0000000000000D+00
317  3.1600000000000D+00  0.0000000000000D+00  0.0000000000000D+00
318  3.1700000000000D+00  0.0000000000000D+00  0.0000000000000D+00
319  3.1800000000000D+00  0.0000000000000D+00  0.0000000000000D+00
320  3.1900000000000D+00  0.0000000000000D+00  0.0000000000000D+00
321  3.2000000000000D+00  0.0000000000000D+00  0.0000000000000D+00
322  3.2100000000000D+00  0.0000000000000D+00  0.0000000000000D+00
323  3.2200000000000D+00  0.0000000000000D+00  0.0000000000000D+00
324  3.2300000000000D+00  0.0000000000000D+00  0.0000000000000D+00
325  3.2400000000000D+00  0.0000000000000D+00  0.0000000000000D+00
326  3.2500000000000D+00  0.0000000000000D+00  0.0000000000000D+00
327  3.2600000000000D+00  0.0000000000000D+00  0.0000000000000D+00
328  3.2700000000000D+00  0.0000000000000D+00  0.0000000000000D+00
329  3.2800000000000D+00  0.0000000000000D+00  0.0000000000000D+00
330  3.2900000000000D+00  0.0000000000000D+00  0.0000000000000D+00
331  3.3000000000000D+00  0.0000000000000D+00  0.0000000000000D+00
332  3.3100000000000D+00  0.0000000000000D+00  0.0000000000000D+00
333  3.3200000000000D+00  0.0000000000000D+00  0.0000000000000D+00
334  3.3300000000000D+00  0.0000000000000D+00  0.0000000000000D+00
335  3.3400000000000D+00  0.0000000000000D+00  0.0000000000000D+00
336  3.3500000000000D+00  0.0000000000000D+00  0.0000000000000D+00
337  3.3600000000000D+00  0.0000000000000D+00  0.0000000000000D+00
338  3.3700000000000D+00  0.0000000000000D+00  0.0000000000000D+00
339  3.3800000000000D+00  0.0000000000000D+00  0.0000000000000D+00
340  3.3900000000000D+00  0.0000000000000D+00  0.0000000000000D+00
341  3.4000000000000D+00  0.0000000000000D+00  0.0000000000000D+00
342  3.4100000000000D+00  0.0000000000000D+00  0.0000000000000D+00
343  3.4200000000000D+00  0.0000000000000D+00  0.0000000000000D+00
344  3.4300000000000D+00  0.0000000000000D+00  0.0000000000000D+00
345  3.4400000000000D+00  0.0000000000000D+00  0.0000000000000D+00
346  3.4500000000000D+00  0.0000000000000D+00  0.0000000000000D+00
347  3.4600000000000D+00  0.0000000000000D+00  0.0000000000000D+00
348  3.4700000000000D+00  0.0000000000000D+00  0.0000000000000D+00
349  3.4800000000000D+00  0.0000000000000D+00  0.0000000000000D+00
350  3.4900000000000D+00  0.0000000000000D+00  0.0000000000000D+00
351  3.5000000000000D+00  0.0000000000000D+00  0.0000000000000D+00
352  3.5100000000000D+00  0.0000000000000D+00  0.0000000000000D+00
353  3.5200000000000D+00  0.0000000000000D+00  0.0000000000000D+00
354  3.5300000000000D+00  0.0000000000000D+00  0.0000000000000D+00
355  3.5400000000000D+00  0.0000000000000D+00  0.0000000000000D+00
356  3.5500000000000D+00  0.0000000000000D+00  0.0000000000000D+00
357  3.5600000000000D+00  0.0000000000000D+00  0.0000000000000D+00
358  3.5700000000000D+00  0.0000000000000D+00  0.0000000000000D+00
359  3.5800000000000D+00  0.0000000000000D+00  0.0000000000000D+00
360  3.5900000000000D+00  0.0000000000000D+00  0.0000000000000D+00
361  3.6000000000000D+00  0.0000000000000D+00  0.0000000000000D+00
362  3.6100000000000D+00  0.0000000000000D+00  0.0000000000000D+00
363  3.6200000000000D+00  0.0000000000000D+00  0.0000000000000D+00
364  3.6300000000000D+00  0.0000000000000D+00  0.0000000000000D+00
365  3.6400000000000D+00  0.0000000000000D+00  0.0000000000000D+00
366  3.6500000000000D+00  0.0000000000000D+00  0.0000000000000D+00
367  3.6600000000000D+00  0.0000000000000D+00  0.0000000000000D+00
368  3.6700000000000D+00  0.0000000000000D+00  0.0000000000000D+00
369  3.6800000000000D+00  0.0000000000000D+00  0.0000000000000D+00
370  3.6900000000000D+00  0.0000000000000D+00  0.0000000000000D+00
371  3.7000000000000D+00  0.0000000000000D+00  0.0000000000000D+00
372  3.7100000000000D+00  0.0000000000000D+00  0.0000000000000D+00
373  3.7200000000000D+00  0.0000000000000D+00  0.0000000000000D+00
374  3.7300000000000D+00  0.0000000000000D+00  0.0000000000000D+00
375  3.7400000000000D+00  0.0000000000000D+00  0.0000000000000D+00
376  3.7500000000000D+00  0.0000000000000D+00  0.0000000000000D+00
377  3.7600000000000D+00  0.0000000000000D+00  0.0000000000000D+00
378  3.7700000000000D+00  0.0000000000000D+00  0.0000000000000D+00
379  3.7800000000000D+00  0.0000000000000D+00  0.0000000000000D+00
380  3.7900000000000D+00  0.0000000000000D+00  0.0000000000000D+00
381  3.8000000000000D+00  0.0000000000000D+00  0.0000000000000D+00
382  3.8100000000000D+00  0.0000000000000D+00  0.0000000000000D+00
383  3.8200000000000D+00  0.0000000000000D+00  0.0000000000000D+00
384  3.8300000000000D+00  0.0000000000000D+00  0.0000000000000D+00
385  3.8400000000000D+00  0.0000000000000D+00  0.0000000000000D+00
386  3.8500000000000D+00  0.0000000000000D+00  0.0000000000000D+00
387  3.8600000000000D+00  0.0000000000000D+00  0.0000000000000D+00
388  3.8700000000000D+00  0.0000000000000D+00  0.0000000000000D+00
389  3.8800000000000D+00  0.0000000000000D+00  0.0000000000000D+00
390  3.8900000000000D+00  0.0000000000000D+00  0.0000000000000D+00
391  3.9000000000000D+00  0.0000000000000D+00  0.0000000000000D+00
392  3.9100000000000D+00  0.0000000000000D+00  0.0000000000000D+00
393  3.9200000000000D+00  0.0000000000000D+00  0.0000000000000D+00
394  3.9300000000000D+00  0.0000000000000D+00  0.0000000000000D+00
395  3.9400000000000D+00  0.0000000000000D+00  0.0000000000000D+00
396  3.9500000000000D+00  0.0000000000000D+00  0.0000000000000D+00
397  3.9600000000000D+00  0.0000000000000D+00  0.0000000000000D+00
398  3.9700000000000D+00  0.0000000000000D+00  0.0000000000000D+00
399  3.9800000000000D+00  0.0000000000000D+00  0.0000000000000D+00
400  3.9900000000000D+00  0.0000000000000D+00  0.0000000000000D+00
401  4.0000000000000D+00  0.0000000000000D+00  0.0000000000000D+00
402  4.0100000000000D+00  0.0000000000000D+00  0.0000000000000D+00
403  4.0200000000000D+00  0.0000000000000D+00  0.0000000000000D+00
404  4.0300000000000D+00  0.0000000000000D+00  0.0000000000000D+00
405  4.0400000000000D+00  0.0000000000000D+00  0.0000000000000D+00
406  4.0500000000000D+00  0.0000000000000D+00  0.0000000000000D+00
407  4.0600000000000D+00  0.0000000000000D+00  0.0000000000000D+00
408  4.0700000000000D+00  0.0000000000000D+00  0.0000000000000D+00
409  4.0800000000000D+00  0.0000000000000D+00  0.0000000000000D+00
410  4.0900000000000D+00  0.0000000000000D+00  0.0000000000000D+00
411  4.1000000000000D+00  0.0000000000000D+00  0.0000000000000D+00
412  4.1100000000000D+00  0.0000000000000D+00  0.0000000000000D+00
413  4.1200000000000D+00  0.0000000000000D+00  0.0000000000000D+00
414  4.1300000000000D+00  0.0000000000000D+00  0.0000000000000D+00
415  4.1400000000000D+00  0.0000000000000D+00  0.0000000000000D+00
416  4.1500000000000D+00  0.0000000000000D+00  0.0000000000000D+00
417  4.1600000000000D+00  0.0000000000000D+00  0.0000000000000D+00
418  4.1700000000000D+00  0.0000000000000D+00  0.0000000000000D+00
419  4.1800000000000D+00  0.0000000000000D+00  0.0000000000000D+00
420  4.1900000000000D+00  0.0000000000000D+00  0.0000000000000D+00
421  4.2000000000000D+00  0.0000000000000D+00  0.0000000000000D+00
422  4.2100000000000D+00  0.0000000000000D+00  0.0000000000000D+00
423  4.2200000000000D+00  0.0000000000000D+00  0.0000000000000D+00
424  4.2300000000000D+00  0.0000000000000D+00  0.0000000000000D+00
425  4.2400000000000D+00  0.0000000000000D+00  0.0000000000000D+00
426  4.2500000000000D+00  0.0000000000000D+00  0.0000000000000D+00
427  4.2600000000000D+00  0.0000000000000D+00  0.0000000000000D+00
428  4.2700000000000D+00  0.0000000000000D+00  0.0000000000000D+00
429  4.2800000000000D+00  0.0000000000000D+00  0.0000000000000D+00
430  4.2900000000000D+00  0.0000000000000D+00  0.0000000000000D+00
431  4.3000000000000D+00  0.0000000000000D+00  0.0000000000000D+00
432  4.3100000000000D+00  0.0000000000000D+00  0.0000000000000D+00
433  4.3200000000000D+00  0.0000000000000D+00  0.0000000000000D+00
434  4.3300000000000D+00  0.0000000000000D+00  0.0000000000000D+00
435  4.3400000000000D+00  0.0000000000000D+00  0.0000000000000D+00
436  4.3500000000000D+00  0.0000000000000D+00  0.0000000000000D+00
437  4.3600000000000D+00  0.0000000000000D+00  0.0000000000000D+00
438  4.3700000000000D+00  0.0000000000000D+00  0.0000000000000D+00
439  4.3800000000000D+00  0.0000000000000D+00  0.0000000000000D+00
440  4.3900000000000D+00  0.0000000000000D+00  0.0000000000000D+00
441  4.4000000000000D+00  0.0000000000000D+00  0.0000000000000D+00
442  4.4100000000000D+00  0.0000000000000D+00  0.0000000000000D+00
443  4.4200000000000D+00  0.0000000000000D+00  0.0000000000000D+00