Re    ONCVPSP-3.3.0  r_core=   1.60865   1.60865   1.60865   2.01786
75.0000     15.0000      180430    zatom,zion,pspd
8 -116133   3     4   600     0    pspcod,pspxc,lmax,lloc,mmax,r2well
5.99000000  4.00000000  0.00000000    rchrg fchrg qchrg
2     4     4     4    nproj
3     1           extension_switch
4     4     4    nprojso
0                        -8.7203474943576D-01  6.4154452820616D+00
1  0.0000000000000D+00  1.9674438744843D-09  1.5296514055407D-10
2  1.0000000000000D-02 -6.0844368991562D-02  5.4322825273694D-02
3  2.0000000000000D-02 -1.2129577318816D-01  1.0858409842000D-01
4  3.0000000000000D-02 -1.8096494282403D-01  1.6272214064492D-01
5  4.0000000000000D-02 -2.3946995567294D-01  2.1667502291728D-01
6  5.0000000000000D-02 -2.9643980502737D-01  2.7038044855109D-01
7  6.0000000000000D-02 -3.5151784214129D-01  3.2377564491916D-01
8  7.0000000000000D-02 -4.0436505362728D-01  3.7679726716019D-01
9  8.0000000000000D-02 -4.5466313626624D-01  4.2938131658855D-01
10  9.0000000000000D-02 -5.0211733410357D-01  4.8146307632822D-01
11  1.0000000000000D-01 -5.4645900554181D-01  5.3297706647151D-01
12  1.1000000000000D-01 -5.8744789136282D-01  5.8385702081298D-01
13  1.2000000000000D-01 -6.2487405818484D-01  6.3403588693048D-01
14  1.3000000000000D-01 -6.5855949573967D-01  6.8344585108370D-01
15  1.4000000000000D-01 -6.8835935049672D-01  7.3201838907786D-01
16  1.5000000000000D-01 -7.1416278251600D-01  7.7968434390122D-01
17  1.6000000000000D-01 -7.3589343692837D-01  8.2637403059295D-01
18  1.7000000000000D-01 -7.5350952606743D-01  8.7201736843740D-01
19  1.8000000000000D-01 -7.6700352295643D-01  9.1654404021584D-01
20  1.9000000000000D-01 -7.7640147153151D-01  9.5988367788155D-01
21  2.0000000000000D-01 -7.8176192360306D-01  1.0019660736634D+00
22  2.1000000000000D-01 -7.8317451706536D-01  1.0427214152509D+00
23  2.2000000000000D-01 -7.8075821420607D-01  1.0820805433732D+00
24  2.3000000000000D-01 -7.7465922309052D-01  1.1199752297630D+00
25  2.4000000000000D-01 -7.6504862885002D-01  1.1563384731941D+00
26  2.5000000000000D-01 -7.5211976524237D-01  1.1911048110014D+00
27  2.6000000000000D-01 -7.3608536003294D-01  1.2242106432465D+00
28  2.7000000000000D-01 -7.1717449052578D-01  1.2555945664680D+00
29  2.8000000000000D-01 -6.9562938792314D-01  1.2851977137760D+00
30  2.9000000000000D-01 -6.7170213107632D-01  1.3129640978957D+00
31  3.0000000000000D-01 -6.4565127158819D-01  1.3388409536585D+00
32  3.1000000000000D-01 -6.1773843311805D-01  1.3627790763644D+00
33  3.2000000000000D-01 -5.8822492810922D-01  1.3847331524122D+00
34  3.3000000000000D-01 -5.5736843500332D-01  1.4046620786018D+00
35  3.4000000000000D-01 -5.2541977831978D-01  1.4225292665683D+00
36  3.5000000000000D-01 -4.9261985277141D-01  1.4383029289000D+00
37  3.6000000000000D-01 -4.5919673086815D-01  1.4519563436286D+00
38  3.7000000000000D-01 -4.2536299124885D-01  1.4634680939515D+00
39  3.8000000000000D-01 -3.9131330229875D-01  1.4728222802622D+00
40  3.9000000000000D-01 -3.5722229248821D-01  1.4800087018061D+00
41  4.0000000000000D-01 -3.2324273534043D-01  1.4850230055663D+00
42  4.1000000000000D-01 -2.8950407304236D-01  1.4878668002872D+00
43  4.2000000000000D-01 -2.5611129849893D-01  1.4885477338869D+00
44  4.3000000000000D-01 -2.2314421114365D-01  1.4870795328639D+00
45  4.4000000000000D-01 -1.9065705711276D-01  1.4834820026874D+00
46  4.5000000000000D-01 -1.5867855951800D-01  1.4777809885504D+00
47  4.6000000000000D-01 -1.2721233957622D-01  1.4700082962717D+00
48  4.7000000000000D-01 -9.6237724327932D-02  1.4602015735411D+00
49  4.8000000000000D-01 -6.5710931666141D-02  1.4484041521156D+00
50  4.9000000000000D-01 -3.5566618458779D-02  1.4346648519799D+00
51  5.0000000000000D-01 -5.7197727467355D-03  1.4190377488865D+00
52  5.1000000000000D-01  2.3932073609038D-02  1.4015819070762D+00
53  5.2000000000000D-01  5.3506339812345D-02  1.3823610793500D+00
54  5.3000000000000D-01  8.3132630575704D-02  1.3614433770115D+00
55  5.4000000000000D-01  1.1294974583958D-01  1.3389009125207D+00
56  5.5000000000000D-01  1.4310250476124D-01  1.3148094179931D+00
57  5.6000000000000D-01  1.7373842579157D-01  1.2892478429370D+00
58  5.7000000000000D-01  2.0500430699776D-01  1.2622979348448D+00
59  5.8000000000000D-01  2.3704275259459D-01  1.2340438064382D+00
60  5.9000000000000D-01  2.6998869290896D-01  1.2045714935084D+00
61  6.0000000000000D-01  3.0396594568348D-01  1.1739685073929D+00
62  6.1000000000000D-01  3.3908386672124D-01  1.1423233861815D+00
63  6.2000000000000D-01  3.7543413737500D-01  1.1097252487557D+00
64  6.3000000000000D-01  4.1308773528526D-01  1.0762633557244D+00
65  6.4000000000000D-01  4.5209213308388D-01  1.0420266812375D+00
66  6.5000000000000D-01  4.9246876752368D-01  1.0071034995276D+00
67  6.6000000000000D-01  5.3421081866658D-01  9.7158098985929D-01
68  6.7000000000000D-01  5.7728133541774D-01  9.3554486334702D-01
69  6.8000000000000D-01  6.2161173986735D-01  8.9907901485125D-01
70  6.9000000000000D-01  6.6710073858717D-01  8.6226520286627D-01
71  7.0000000000000D-01  7.1361366434540D-01  8.2518275998922D-01
72  7.1000000000000D-01  7.6098226664045D-01  7.8790833620158D-01
73  7.2000000000000D-01  8.0900496412100D-01  7.5051567681316D-01
74  7.3000000000000D-01  8.5744756634643D-01  7.1307543651145D-01
75  7.4000000000000D-01  9.0604446660375D-01  6.7565503053848D-01
76  7.5000000000000D-01  9.5450030162616D-01  6.3831852358231D-01
77  7.6000000000000D-01  1.0024920681613D+00  6.0112655652813D-01
78  7.7000000000000D-01  1.0496716804741D+00  5.6413631076980D-01
79  7.8000000000000D-01  1.0956689471276D+00  5.2740150934279D-01
80  7.9000000000000D-01  1.1400949397878D+00  4.9097245370499D-01
81  8.0000000000000D-01  1.1825457214885D+00  4.5489609457476D-01
82  8.1000000000000D-01  1.2226063967744D+00  4.1921613483434D-01
83  8.2000000000000D-01  1.2598554415061D+00  3.8397316213045D-01
84  8.3000000000000D-01  1.2938692659220D+00  3.4920480845543D-01
85  8.4000000000000D-01  1.3242269608543D+00  3.1494593367619D-01
86  8.5000000000000D-01  1.3505151738512D+00  2.8122882969931D-01
87  8.6000000000000D-01  1.3723330594010D+00  2.4808344172108D-01
88  8.7000000000000D-01  1.3892972455325D+00  2.1553760281558D-01
89  8.8000000000000D-01  1.4010467578043D+00  1.8361727796383D-01
90  8.9000000000000D-01  1.4072478411242D+00  1.5234681352517D-01
91  9.0000000000000D-01  1.4075986199675D+00  1.2174918809919D-01
92  9.1000000000000D-01  1.4018335384038D+00  9.1846260725125D-02
93  9.2000000000000D-01  1.3897275228935D+00  6.2659012413916D-02
94  9.3000000000000D-01  1.3710998130631D+00  3.4207777108010D-02
95  9.4000000000000D-01  1.3458174086044D+00  6.5124583126928D-03
96  9.5000000000000D-01  1.3137980840439D+00 -2.0407272158974D-02
97  9.6000000000000D-01  1.2750129273451D+00 -4.6531796642178D-02
98  9.7000000000000D-01  1.2294883630563D+00 -7.1841398307688D-02
99  9.8000000000000D-01  1.1773076261385D+00 -9.6316134778093D-02
100  9.9000000000000D-01  1.1186116583388D+00 -1.1993574101103D-01
101  1.0000000000000D+00  1.0535994052284D+00 -1.4267956338932D-01
102  1.0100000000000D+00  9.8252749858084D-01 -1.6452652653435D-01
103  1.0200000000000D+00  9.0570931559779D-01 -1.8545513391279D-01
104  1.0300000000000D+00  8.2351341368161D-01 -2.0544350283163D-01
105  1.0400000000000D+00  7.3636134613391D-01 -2.2446943397192D-01
106  1.0500000000000D+00  6.4472487199616D-01 -2.4251051508527D-01
107  1.0600000000000D+00  5.4912257989599D-01 -2.5954425802691D-01
108  1.0700000000000D+00  4.5011595289661D-01 -2.7554826781285D-01
109  1.0800000000000D+00  3.4830490839529D-01 -2.9050044190417D-01
110  1.0900000000000D+00  2.4432285283028D-01 -3.0437919752674D-01
111  1.1000000000000D+00  1.3883129799280D-01 -3.1716372434396D-01
112  1.1100000000000D+00  3.2514090765086D-02 -3.2883425944656D-01
113  1.1200000000000D+00 -7.3928686511217D-02 -3.3937238124145D-01
114  1.1300000000000D+00 -1.7978708357875D-01 -3.4876131851597D-01
115  1.1400000000000D+00 -2.8434785225751D-01 -3.5698627066394D-01
116  1.1500000000000D+00 -3.8690115004887D-01 -3.6403473480805D-01
117  1.1600000000000D+00 -4.8674730644076D-01 -3.6989683539271D-01
118  1.1700000000000D+00 -5.8320357940990D-01 -3.7456565169305D-01
119  1.1800000000000D+00 -6.7561082843159D-01 -3.7803753858288D-01
120  1.1900000000000D+00 -7.6334003052659D-01 -3.8031243589581D-01
121  1.2000000000000D+00 -8.4579856736674D-01 -3.8139416179308D-01
122  1.2100000000000D+00 -9.2243621171383D-01 -3.8129068555599D-01
123  1.2200000000000D+00 -9.9275074524625D-01 -3.8001437544584D-01
124  1.2300000000000D+00 -1.0562931433680D+00 -3.7758221750111D-01
125  1.2400000000000D+00 -1.1126722653723D+00 -3.7401600131563D-01
126  1.2500000000000D+00 -1.1615589935833D+00 -3.6934246917612D-01
127  1.2600000000000D+00 -1.2026897725458D+00 -3.6359342542710D-01
128  1.2700000000000D+00 -1.2358695030163D+00 -3.5680580317285D-01
129  1.2800000000000D+00 -1.2609737517170D+00 -3.4902168583201D-01
130  1.2900000000000D+00 -1.2779502498047D+00 -3.4028828186012D-01
131  1.3000000000000D+00 -1.2868196551325D+00 -3.3065785109783D-01
132  1.3100000000000D+00 -1.2876755619435D+00 -3.2018758177073D-01
133  1.3200000000000D+00 -1.2806837566294D+00 -3.0893941817735D-01
134  1.3300000000000D+00 -1.2660807160990D+00 -2.9697983896028D-01
135  1.3400000000000D+00 -1.2441713598087D+00 -2.8437958683093D-01
136  1.3500000000000D+00 -1.2153260797528D+00 -2.7121335151679D-01
137  1.3600000000000D+00 -1.1799770653164D+00 -2.5755940719794D-01
138  1.3700000000000D+00 -1.1386139657902D+00 -2.4349920745273D-01
139  1.3800000000000D+00 -1.0917789321703D+00 -2.2911694065570D-01
140  1.3900000000000D+00 -1.0400610809254D+00 -2.1449904884024D-01
141  1.4000000000000D+00 -9.8409044705876D-01 -1.9973371471328D-01
142  1.4100000000000D+00 -9.2453147941221D-01 -1.8491032053220D-01
143  1.4200000000000D+00 -8.6207615111725D-01 -1.7011888391068D-01
144  1.4300000000000D+00 -7.9743675923231D-01 -1.5544947569439D-01
145  1.4400000000000D+00 -7.3133848466872D-01 -1.4099162485263D-01
146  1.4500000000000D+00 -6.6451179991521D-01 -1.2683371643768D-01
147  1.4600000000000D+00 -5.9768480025928D-01 -1.1306238786724D-01
148  1.4700000000000D+00 -5.3157554749471D-01 -9.9761929682140D-02
149  1.4800000000000D+00 -4.6688450532107D-01 -8.7013696256920D-02
150  1.4900000000000D+00 -4.0428715704290D-01 -7.4895532733307D-02
151  1.5000000000000D+00 -3.4442687735132D-01 -6.3481223120102D-02
152  1.5100000000000D+00 -2.8790815272829D-01 -5.2839966104034D-02
153  1.5200000000000D+00 -2.3529021137122D-01 -4.3035882751032D-02
154  1.5300000000000D+00 -1.8708114918448D-01 -3.4127562079212D-02
155  1.5400000000000D+00 -1.4373261164165D-01 -2.6167648608871D-02
156  1.5500000000000D+00 -1.0563509342568D-01 -1.9202476147823D-02
157  1.5600000000000D+00 -7.3137265013168D-02 -1.3275976803851D-02
158  1.5700000000000D+00 -4.6429644279164D-02 -8.4089636184972D-03
159  1.5800000000000D+00 -2.5600016194027D-02 -4.6101869092990D-03
160  1.5900000000000D+00 -1.1247528140064D-02 -1.9834452009509D-03
161  1.6000000000000D+00 -3.4361352756251D-03 -5.4227940572367D-04
162  1.6100000000000D+00 -3.4169537341292D-04  1.5999792236264D-05
163  1.6200000000000D+00  2.2714146264521D-04  7.6166749423143D-05
164  1.6300000000000D+00 -4.2493398722897D-05 -1.1841612890045D-05
165  1.6400000000000D+00 -1.0066017939056D-04 -2.6052551035524D-05
166  1.6500000000000D+00  7.6130176302724D-06  2.3272783703496D-06
167  1.6600000000000D+00  1.6040847687775D-05  4.6707599887538D-06
168  1.6700000000000D+00  7.7100125697157D-07  2.9832620684445D-08
169  1.6800000000000D+00  1.4280532646214D-06  5.5256163301175D-08
170  1.6900000000000D+00  0.0000000000000D+00  0.0000000000000D+00
171  1.7000000000000D+00  0.0000000000000D+00  0.0000000000000D+00
172  1.7100000000000D+00  0.0000000000000D+00  0.0000000000000D+00
173  1.7200000000000D+00  0.0000000000000D+00  0.0000000000000D+00
174  1.7300000000000D+00  0.0000000000000D+00  0.0000000000000D+00
175  1.7400000000000D+00  0.0000000000000D+00  0.0000000000000D+00
176  1.7500000000000D+00  0.0000000000000D+00  0.0000000000000D+00
177  1.7600000000000D+00  0.0000000000000D+00  0.0000000000000D+00
178  1.7700000000000D+00  0.0000000000000D+00  0.0000000000000D+00
179  1.7800000000000D+00  0.0000000000000D+00  0.0000000000000D+00
180  1.7900000000000D+00  0.0000000000000D+00  0.0000000000000D+00
181  1.8000000000000D+00  0.0000000000000D+00  0.0000000000000D+00
182  1.8100000000000D+00  0.0000000000000D+00  0.0000000000000D+00
183  1.8200000000000D+00  0.0000000000000D+00  0.0000000000000D+00
184  1.8300000000000D+00  0.0000000000000D+00  0.0000000000000D+00
185  1.8400000000000D+00  0.0000000000000D+00  0.0000000000000D+00
186  1.8500000000000D+00  0.0000000000000D+00  0.0000000000000D+00
187  1.8600000000000D+00  0.0000000000000D+00  0.0000000000000D+00
188  1.8700000000000D+00  0.0000000000000D+00  0.0000000000000D+00
189  1.8800000000000D+00  0.0000000000000D+00  0.0000000000000D+00
190  1.8900000000000D+00  0.0000000000000D+00  0.0000000000000D+00
191  1.9000000000000D+00  0.0000000000000D+00  0.0000000000000D+00
192  1.9100000000000D+00  0.0000000000000D+00  0.0000000000000D+00
193  1.9200000000000D+00  0.0000000000000D+00  0.0000000000000D+00
194  1.9300000000000D+00  0.0000000000000D+00  0.0000000000000D+00
195  1.9400000000000D+00  0.0000000000000D+00  0.0000000000000D+00
196  1.9500000000000D+00  0.0000000000000D+00  0.0000000000000D+00
197  1.9600000000000D+00  0.0000000000000D+00  0.0000000000000D+00
198  1.9700000000000D+00  0.0000000000000D+00  0.0000000000000D+00
199  1.9800000000000D+00  0.0000000000000D+00  0.0000000000000D+00
200  1.9900000000000D+00  0.0000000000000D+00  0.0000000000000D+00
201  2.0000000000000D+00  0.0000000000000D+00  0.0000000000000D+00
202  2.0100000000000D+00  0.0000000000000D+00  0.0000000000000D+00
203  2.0200000000000D+00  0.0000000000000D+00  0.0000000000000D+00
204  2.0300000000000D+00  0.0000000000000D+00  0.0000000000000D+00
205  2.0400000000000D+00  0.0000000000000D+00  0.0000000000000D+00
206  2.0500000000000D+00  0.0000000000000D+00  0.0000000000000D+00
207  2.0600000000000D+00  0.0000000000000D+00  0.0000000000000D+00
208  2.0700000000000D+00  0.0000000000000D+00  0.0000000000000D+00
209  2.0800000000000D+00  0.0000000000000D+00  0.0000000000000D+00
210  2.0900000000000D+00  0.0000000000000D+00  0.0000000000000D+00
211  2.1000000000000D+00  0.0000000000000D+00  0.0000000000000D+00
212  2.1100000000000D+00  0.0000000000000D+00  0.0000000000000D+00
213  2.1200000000000D+00  0.0000000000000D+00  0.0000000000000D+00
214  2.1300000000000D+00  0.0000000000000D+00  0.0000000000000D+00
215  2.1400000000000D+00  0.0000000000000D+00  0.0000000000000D+00
216  2.1500000000000D+00  0.0000000000000D+00  0.0000000000000D+00
217  2.1600000000000D+00  0.0000000000000D+00  0.0000000000000D+00
218  2.1700000000000D+00  0.0000000000000D+00  0.0000000000000D+00
219  2.1800000000000D+00  0.0000000000000D+00  0.0000000000000D+00
220  2.1900000000000D+00  0.0000000000000D+00  0.0000000000000D+00
221  2.2000000000000D+00  0.0000000000000D+00  0.0000000000000D+00
222  2.2100000000000D+00  0.0000000000000D+00  0.0000000000000D+00
223  2.2200000000000D+00  0.0000000000000D+00  0.0000000000000D+00
224  2.2300000000000D+00  0.0000000000000D+00  0.0000000000000D+00
225  2.2400000000000D+00  0.0000000000000D+00  0.0000000000000D+00
226  2.2500000000000D+00  0.0000000000000D+00  0.0000000000000D+00
227  2.2600000000000D+00  0.0000000000000D+00  0.0000000000000D+00
228  2.2700000000000D+00  0.0000000000000D+00  0.0000000000000D+00
229  2.2800000000000D+00  0.0000000000000D+00  0.0000000000000D+00
230  2.2900000000000D+00  0.0000000000000D+00  0.0000000000000D+00
231  2.3000000000000D+00  0.0000000000000D+00  0.0000000000000D+00
232  2.3100000000000D+00  0.0000000000000D+00  0.0000000000000D+00
233  2.3200000000000D+00  0.0000000000000D+00  0.0000000000000D+00
234  2.3300000000000D+00  0.0000000000000D+00  0.0000000000000D+00
235  2.3400000000000D+00  0.0000000000000D+00  0.0000000000000D+00
236  2.3500000000000D+00  0.0000000000000D+00  0.0000000000000D+00
237  2.3600000000000D+00  0.0000000000000D+00  0.0000000000000D+00
238  2.3700000000000D+00  0.0000000000000D+00  0.0000000000000D+00
239  2.3800000000000D+00  0.0000000000000D+00  0.0000000000000D+00
240  2.3900000000000D+00  0.0000000000000D+00  0.0000000000000D+00
241  2.4000000000000D+00  0.0000000000000D+00  0.0000000000000D+00
242  2.4100000000000D+00  0.0000000000000D+00  0.0000000000000D+00
243  2.4200000000000D+00  0.0000000000000D+00  0.0000000000000D+00
244  2.4300000000000D+00  0.0000000000000D+00  0.0000000000000D+00
245  2.4400000000000D+00  0.0000000000000D+00  0.0000000000000D+00
246  2.4500000000000D+00  0.0000000000000D+00  0.0000000000000D+00
247  2.4600000000000D+00  0.0000000000000D+00  0.0000000000000D+00
248  2.4700000000000D+00  0.0000000000000D+00  0.0000000000000D+00
249  2.4800000000000D+00  0.0000000000000D+00  0.0000000000000D+00
250  2.4900000000000D+00  0.0000000000000D+00  0.0000000000000D+00
251  2.5000000000000D+00  0.0000000000000D+00  0.0000000000000D+00
252  2.5100000000000D+00  0.0000000000000D+00  0.0000000000000D+00
253  2.5200000000000D+00  0.0000000000000D+00  0.0000000000000D+00
254  2.5300000000000D+00  0.0000000000000D+00  0.0000000000000D+00
255  2.5400000000000D+00  0.0000000000000D+00  0.0000000000000D+00
256  2.5500000000000D+00  0.0000000000000D+00  0.0000000000000D+00
257  2.5600000000000D+00  0.0000000000000D+00  0.0000000000000D+00
258  2.5700000000000D+00  0.0000000000000D+00  0.0000000000000D+00
259  2.5800000000000D+00  0.0000000000000D+00  0.0000000000000D+00
260  2.5900000000000D+00  0.0000000000000D+00  0.0000000000000D+00
261  2.6000000000000D+00  0.0000000000000D+00  0.0000000000000D+00
262  2.6100000000000D+00  0.0000000000000D+00  0.0000000000000D+00
263  2.6200000000000D+00  0.0000000000000D+00  0.0000000000000D+00
264  2.6300000000000D+00  0.0000000000000D+00  0.0000000000000D+00
265  2.6400000000000D+00  0.0000000000000D+00  0.0000000000000D+00
266  2.6500000000000D+00  0.0000000000000D+00  0.0000000000000D+00
267  2.6600000000000D+00  0.0000000000000D+00  0.0000000000000D+00
268  2.6700000000000D+00  0.0000000000000D+00  0.0000000000000D+00
269  2.6800000000000D+00  0.0000000000000D+00  0.0000000000000D+00
270  2.6900000000000D+00  0.0000000000000D+00  0.0000000000000D+00
271  2.7000000000000D+00  0.0000000000000D+00  0.0000000000000D+00
272  2.7100000000000D+00  0.0000000000000D+00  0.0000000000000D+00
273  2.7200000000000D+00  0.0000000000000D+00  0.0000000000000D+00
274  2.7300000000000D+00  0.0000000000000D+00  0.0000000000000D+00
275  2.7400000000000D+00  0.0000000000000D+00  0.0000000000000D+00
276  2.7500000000000D+00  0.0000000000000D+00  0.0000000000000D+00
277  2.7600000000000D+00  0.0000000000000D+00  0.0000000000000D+00
278  2.7700000000000D+00  0.0000000000000D+00  0.0000000000000D+00
279  2.7800000000000D+00  0.0000000000000D+00  0.0000000000000D+00
280  2.7900000000000D+00  0.0000000000000D+00  0.0000000000000D+00
281  2.8000000000000D+00  0.0000000000000D+00  0.0000000000000D+00
282  2.8100000000000D+00  0.0000000000000D+00  0.0000000000000D+00
283  2.8200000000000D+00  0.0000000000000D+00  0.0000000000000D+00
284  2.8300000000000D+00  0.0000000000000D+00  0.0000000000000D+00
285  2.8400000000000D+00  0.0000000000000D+00  0.0000000000000D+00
286  2.8500000000000D+00  0.0000000000000D+00  0.0000000000000D+00
287  2.8600000000000D+00  0.0000000000000D+00  0.0000000000000D+00
288  2.8700000000000D+00  0.0000000000000D+00  0.0000000000000D+00
289  2.8800000000000D+00  0.0000000000000D+00  0.0000000000000D+00
290  2.8900000000000D+00  0.0000000000000D+00  0.0000000000000D+00
291  2.9000000000000D+00  0.0000000000000D+00  0.0000000000000D+00
292  2.9100000000000D+00  0.0000000000000D+00  0.0000000000000D+00
293  2.9200000000000D+00  0.0000000000000D+00  0.0000000000000D+00
294  2.9300000000000D+00  0.0000000000000D+00  0.0000000000000D+00
295  2.9400000000000D+00  0.0000000000000D+00  0.0000000000000D+00
296  2.9500000000000D+00  0.0000000000000D+00  0.0000000000000D+00
297  2.9600000000000D+00  0.0000000000000D+00  0.0000000000000D+00
298  2.9700000000000D+00  0.0000000000000D+00  0.0000000000000D+00
299  2.9800000000000D+00  0.0000000000000D+00  0.0000000000000D+00
300  2.9900000000000D+00  0.0000000000000D+00  0.0000000000000D+00
301  3.0000000000000D+00  0.0000000000000D+00  0.0000000000000D+00
302  3.0100000000000D+00  0.0000000000000D+00  0.0000000000000D+00
303  3.0200000000000D+00  0.0000000000000D+00  0.0000000000000D+00
304  3.0300000000000D+00  0.0000000000000D+00  0.0000000000000D+00
305  3.0400000000000D+00  0.0000000000000D+00  0.0000000000000D+00
306  3.0500000000000D+00  0.0000000000000D+00  0.0000000000000D+00
307  3.0600000000000D+00  0.0000000000000D+00  0.0000000000000D+00
308  3.0700000000000D+00  0.0000000000000D+00  0.0000000000000D+00
309  3.0800000000000D+00  0.0000000000000D+00  0.0000000000000D+00
310  3.0900000000000D+00  0.0000000000000D+00  0.0000000000000D+00
311  3.1000000000000D+00  0.0000000000000D+00  0.0000000000000D+00
312  3.1100000000000D+00  0.0000000000000D+00  0.0000000000000D+00
313  3.1200000000000D+00  0.0000000000000D+00  0.0000000000000D+00
314  3.1300000000000D+00  0.0000000000000D+00  0.0000000000000D+00
315  3.1400000000000D+00  0.0000000000000D+00  0.0000000000000D+00
316  3.1500000000000D+00  0.0000000000000D+00  0.0000000000000D+00
317  3.1600000000000D+00  0.0000000000000D+00  0.0000000000000D+00
318  3.1700000000000D+00  0.0000000000000D+00  0.0000000000000D+00
319  3.1800000000000D+00  0.0000000000000D+00  0.0000000000000D+00
320  3.1900000000000D+00  0.0000000000000D+00  0.0000000000000D+00
321  3.2000000000000D+00  0.0000000000000D+00  0.0000000000000D+00
322  3.2100000000000D+00  0.0000000000000D+00  0.0000000000000D+00
323  3.2200000000000D+00  0.0000000000000D+00  0.0000000000000D+00
324  3.2300000000000D+00  0.0000000000000D+00  0.0000000000000D+00
325  3.2400000000000D+00  0.0000000000000D+00  0.0000000000000D+00
326  3.2500000000000D+00  0.0000000000000D+00  0.0000000000000D+00
327  3.2600000000000D+00  0.0000000000000D+00  0.0000000000000D+00
328  3.2700000000000D+00  0.0000000000000D+00  0.0000000000000D+00
329  3.2800000000000D+00  0.0000000000000D+00  0.0000000000000D+00
330  3.2900000000000D+00  0.0000000000000D+00  0.0000000000000D+00
331  3.3000000000000D+00  0.0000000000000D+00  0.0000000000000D+00
332  3.3100000000000D+00  0.0000000000000D+00  0.0000000000000D+00
333  3.3200000000000D+00  0.0000000000000D+00  0.0000000000000D+00
334  3.3300000000000D+00  0.0000000000000D+00  0.0000000000000D+00
335  3.3400000000000D+00  0.0000000000000D+00  0.0000000000000D+00
336  3.3500000000000D+00  0.0000000000000D+00  0.0000000000000D+00
337  3.3600000000000D+00  0.0000000000000D+00  0.0000000000000D+00
338  3.3700000000000D+00  0.0000000000000D+00  0.0000000000000D+00
339  3.3800000000000D+00  0.0000000000000D+00  0.0000000000000D+00
340  3.3900000000000D+00  0.0000000000000D+00  0.0000000000000D+00
341  3.4000000000000D+00  0.0000000000000D+00  0.0000000000000D+00
342  3.4100000000000D+00  0.0000000000000D+00  0.0000000000000D+00
343  3.4200000000000D+00  0.0000000000000D+00  0.0000000000000D+00
344  3.4300000000000D+00  0.0000000000000D+00  0.0000000000000D+00
345  3.4400000000000D+00  0.0000000000000D+00  0.0000000000000D+00
346  3.4500000000000D+00  0.0000000000000D+00  0.0000000000000D+00
347  3.4600000000000D+00  0.0000000000000D+00  0.0000000000000D+00
348  3.4700000000000D+00  0.0000000000000D+00  0.0000000000000D+00
349  3.4800000000000D+00  0.0000000000000D+00  0.0000000000000D+00
350  3.4900000000000D+00  0.0000000000000D+00  0.0000000000000D+00
351  3.5000000000000D+00  0.0000000000000D+00  0.0000000000000D+00
352  3.5100000000000D+00  0.0000000000000D+00  0.0000000000000D+00
353  3.5200000000000D+00  0.0000000000000D+00  0.0000000000000D+00
354  3.5300000000000D+00  0.0000000000000D+00  0.0000000000000D+00
355  3.5400000000000D+00  0.0000000000000D+00  0.0000000000000D+00
356  3.5500000000000D+00  0.0000000000000D+00  0.0000000000000D+00
357  3.5600000000000D+00  0.0000000000000D+00  0.0000000000000D+00
358  3.5700000000000D+00  0.0000000000000D+00  0.0000000000000D+00
359  3.5800000000000D+00  0.0000000000000D+00  0.0000000000000D+00
360  3.5900000000000D+00  0.0000000000000D+00  0.0000000000000D+00
361  3.6000000000000D+00  0.0000000000000D+00  0.0000000000000D+00
362  3.6100000000000D+00  0.0000000000000D+00  0.0000000000000D+00
363  3.6200000000000D+00  0.0000000000000D+00  0.0000000000000D+00
364  3.6300000000000D+00  0.0000000000000D+00  0.0000000000000D+00
365  3.6400000000000D+00  0.0000000000000D+00  0.0000000000000D+00
366  3.6500000000000D+00  0.0000000000000D+00  0.0000000000000D+00
367  3.6600000000000D+00  0.0000000000000D+00  0.0000000000000D+00
368  3.6700000000000D+00  0.0000000000000D+00  0.0000000000000D+00
369  3.6800000000000D+00  0.0000000000000D+00  0.0000000000000D+00
370  3.6900000000000D+00  0.0000000000000D+00  0.0000000000000D+00
371  3.7000000000000D+00  0.0000000000000D+00  0.0000000000000D+00
372  3.7100000000000D+00  0.0000000000000D+00  0.0000000000000D+00
373  3.7200000000000D+00  0.0000000000000D+00  0.0000000000000D+00
374  3.7300000000000D+00  0.0000000000000D+00  0.0000000000000D+00
375  3.7400000000000D+00  0.0000000000000D+00  0.0000000000000D+00
376  3.7500000000000D+00  0.0000000000000D+00  0.0000000000000D+00
377  3.7600000000000D+00  0.0000000000000D+00  0.0000000000000D+00
378  3.7700000000000D+00  0.0000000000000D+00  0.0000000000000D+00
379  3.7800000000000D+00  0.0000000000000D+00  0.0000000000000D+00
380  3.7900000000000D+00  0.0000000000000D+00  0.0000000000000D+00
381  3.8000000000000D+00  0.0000000000000D+00  0.0000000000000D+00
382  3.8100000000000D+00  0.0000000000000D+00  0.0000000000000D+00
383  3.8200000000000D+00  0.0000000000000D+00  0.0000000000000D+00
384  3.8300000000000D+00  0.0000000000000D+00  0.0000000000000D+00
385  3.8400000000000D+00  0.0000000000000D+00  0.0000000000000D+00
386  3.8500000000000D+00  0.0000000000000D+00  0.0000000000000D+00
387  3.8600000000000D+00  0.0000000000000D+00  0.0000000000000D+00
388  3.8700000000000D+00  0.0000000000000D+00  0.0000000000000D+00
389  3.8800000000000D+00  0.0000000000000D+00  0.0000000000000D+00
390  3.8900000000000D+00  0.0000000000000D+00  0.0000000000000D+00
391  3.9000000000000D+00  0.0000000000000D+00  0.0000000000000D+00
392  3.9100000000000D+00  0.0000000000000D+00  0.0000000000000D+00
393  3.9200000000000D+00  0.0000000000000D+00  0.0000000000000D+00
394  3.9300000000000D+00  0.0000000000000D+00  0.0000000000000D+00
395  3.9400000000000D+00  0.0000000000000D+00  0.0000000000000D+00
396  3.9500000000000D+00  0.0000000000000D+00  0.0000000000000D+00
397  3.9600000000000D+00  0.0000000000000D+00  0.0000000000000D+00
398  3.9700000000000D+00  0.0000000000000D+00  0.0000000000000D+00
399  3.9800000000000D+00  0.0000000000000D+00  0.0000000000000D+00
400  3.9900000000000D+00  0.0000000000000D+00  0.0000000000000D+00
401  4.0000000000000D+00  0.0000000000000D+00  0.0000000000000D+00
402  4.0100000000000D+00  0.0000000000000D+00  0.0000000000000D+00
403  4.0200000000000D+00  0.0000000000000D+00  0.0000000000000D+00
404  4.0300000000000D+00  0.0000000000000D+00  0.0000000000000D+00
405  4.0400000000000D+00  0.0000000000000D+00  0.0000000000000D+00
406  4.0500000000000D+00  0.0000000000000D+00  0.0000000000000D+00
407  4.0600000000000D+00  0.0000000000000D+00  0.0000000000000D+00
408  4.0700000000000D+00  0.0000000000000D+00  0.0000000000000D+00
409  4.0800000000000D+00  0.0000000000000D+00  0.0000000000000D+00
410  4.0900000000000D+00  0.0000000000000D+00  0.0000000000000D+00
411  4.1000000000000D+00  0.0000000000000D+00  0.0000000000000D+00
412  4.1100000000000D+00  0.0000000000000D+00  0.0000000000000D+00
413  4.1200000000000D+00  0.0000000000000D+00  0.0000000000000D+00
414  4.1300000000000D+00  0.0000000000000D+00  0.0000000000000D+00
415  4.1400000000000D+00  0.0000000000000D+00  0.0000000000000D+00
416  4.1500000000000D+00  0.0000000000000D+00  0.0000000000000D+00
417  4.1600000000000D+00  0.0000000000000D+00  0.0000000000000D+00
418  4.1700000000000D+00  0.0000000000000D+00  0.0000000000000D+00
419  4.1800000000000D+00  0.0000000000000D+00  0.0000000000000D+00
420  4.1900000000000D+00  0.0000000000000D+00  0.0000000000000D+00
421  4.2000000000000D+00  0.0000000000000D+00  0.0000000000000D+00
422  4.2100000000000D+00  0.0000000000000D+00  0.0000000000000D+00
423  4.2200000000000D+00  0.0000000000000D+00  0.0000000000000D+00
424  4.2300000000000D+00  0.0000000000000D+00  0.0000000000000D+00
425  4.2400000000000D+00  0.0000000000000D+00  0.0000000000000D+00
426  4.2500000000000D+00  0.0000000000000D+00  0.0000000000000D+00
427  4.2600000000000D+00  0.0000000000000D+00  0.0000000000000D+00
428  4.2700000000000D+00  0.0000000000000D+00  0.0000000000000D+00
429  4.2800000000000D+00  0.0000000000000D+00  0.0000000000000D+00
430  4.2900000000000D+00  0.0000000000000D+00  0.0000000000000D+00
431  4.3000000000000D+00  0.0000000000000D+00  0.0000000000000D+00
432  4.3100000000000D+00  0.0000000000000D+00  0.0000000000000D+00
433  4.3200000000000D+00  0.0000000000000D+00  0.0000000000000D+00
434  4.3300000000000D+00  0.0000000000000D+00  0.0000000000000D+00
435  4.3400000000000D+00  0.0000000000000D+00  0.0000000000000D+00
436  4.3500000000000D+00  0.0000000000000D+00  0.0000000000000D+00
437  4.3600000000000D+00  0.0000000000000D+00  0.0000000000000D+00
438  4.3700000000000D+00  0.0000000000000D+00  0.0000000000000D+00
439  4.3800000000000D+00  0.0000000000000D+00  0.0000000000000D+00
440  4.3900000000000D+00  0.0000000000000D+00  0.0000000000000D+00
441  4.4000000000000D+00  0.0000000000000D+00  0.0000000000000D+00
442  4.4100000000000D+00  0.0000000000000D+00  0.0000000000000D+00
443  4.4200000000000D+00  0.0000000000000D+00  0.0000000000000D+00