Rn    ONCVPSP-3.3.0  r_core=   2.20741   2.00650   1.80225
86.0000     18.0000      180503    zatom,zion,pspd
8 -116133   2     4   600     0    pspcod,pspxc,lmax,lloc,mmax,r2well
5.99000000  6.00000000  0.00000000    rchrg fchrg qchrg
2     4     3     0    nproj
3     1           extension_switch
4     4     0    nprojso
0                         1.6778838197493D+00  8.2293964577895D+00
1  0.0000000000000D+00 -4.4237113971946D-12  1.1886880368905D-12
2  1.0000000000000D-02  1.9266092434273D-02  1.1196656761623D-02
3  2.0000000000000D-02  3.8451194735821D-02  2.2427827885826D-02
4  3.0000000000000D-02  5.7474617461248D-02  3.3727888676916D-02
5  4.0000000000000D-02  7.6256271687602D-02  4.5130936682089D-02
6  5.0000000000000D-02  9.4716967128152D-02  5.6670653711208D-02
7  6.0000000000000D-02  1.1277870767785D-01  6.8380168933759D-02
8  7.0000000000000D-02  1.3036498353677D-01  8.0291923410741D-02
9  8.0000000000000D-02  1.4740105906427D-01  9.2437536418003D-02
10  9.0000000000000D-02  1.6381425552208D-01  1.0484767391607D-01
11  1.0000000000000D-01  1.7953422787156D-01  1.1755191951959D-01
12  1.1000000000000D-01  1.9449323479832D-01  1.3057864831730D-01
13  1.2000000000000D-01  2.0862640114674D-01  1.4395490389061D-01
14  1.3000000000000D-01  2.2187197195833D-01  1.5770627887592D-01
15  1.4000000000000D-01  2.3417155731964D-01  1.7185679941186D-01
16  1.5000000000000D-01  2.4547036723983D-01  1.8642881380872D-01
17  1.6000000000000D-01  2.5571743579381D-01  2.0144288577214D-01
18  1.7000000000000D-01  2.6486583378389D-01  2.1691769250796D-01
19  1.8000000000000D-01  2.7287286919270D-01  2.3286992802890D-01
20  1.9000000000000D-01  2.7970027472113D-01  2.4931421197648D-01
21  2.0000000000000D-01  2.8531438172859D-01  2.6626300426444D-01
22  2.1000000000000D-01  2.8968627991828D-01  2.8372652584071D-01
23  2.2000000000000D-01  2.9279196213792D-01  3.0171268585593D-01
24  2.3000000000000D-01  2.9461245369638D-01  3.2022701551592D-01
25  2.4000000000000D-01  2.9513392562915D-01  3.3927260888406D-01
26  2.5000000000000D-01  2.9434779138015D-01  3.5885007088705D-01
27  2.6000000000000D-01  2.9225078640495D-01  3.7895747276416D-01
28  2.7000000000000D-01  2.8884503024001D-01  3.9959031518524D-01
29  2.8000000000000D-01  2.8413807062506D-01  4.2074149924727D-01
30  2.9000000000000D-01  2.7814290931036D-01  4.4240130554193D-01
31  3.0000000000000D-01  2.7087800922833D-01  4.6455738146929D-01
32  3.1000000000000D-01  2.6236728275842D-01  4.8719473695270D-01
33  3.2000000000000D-01  2.5264006086706D-01  5.1029574869040D-01
34  3.3000000000000D-01  2.4173104295869D-01  5.3384017305722D-01
35  3.4000000000000D-01  2.2968022733152D-01  5.5780516774756D-01
36  3.5000000000000D-01  2.1653282219037D-01  5.8216532222685D-01
37  3.6000000000000D-01  2.0233913723112D-01  6.0689269703387D-01
38  3.7000000000000D-01  1.8715445587390D-01  6.3195687195077D-01
39  3.8000000000000D-01  1.7103888828795D-01  6.5732500303040D-01
40  3.9000000000000D-01  1.5405720541747D-01  6.8296188844337D-01
41  4.0000000000000D-01  1.3627865428642D-01  7.0883004307810D-01
42  4.1000000000000D-01  1.1777675492918D-01  7.3488978179866D-01
43  4.2000000000000D-01  9.8629079364819D-02  7.6109931123442D-01
44  4.3000000000000D-01  7.8917013103505D-02  7.8741482994574D-01
45  4.4000000000000D-01  5.8725499745311D-02  8.1379063677848D-01
46  4.5000000000000D-01  3.8142769303053D-02  8.4017924718931D-01
47  4.6000000000000D-01  1.7260050952491D-02  8.6653151729196D-01
48  4.7000000000000D-01 -3.8287290159441D-03  8.9279677534310D-01
49  4.8000000000000D-01 -2.5027263199698D-02  9.1892296035530D-01
50  4.9000000000000D-01 -4.6237192127677D-02  9.4485676749285D-01
51  5.0000000000000D-01 -6.7358445364371D-02  9.7054379987571D-01
52  5.1000000000000D-01 -8.8289593628542D-02  9.9592872638605D-01
53  5.2000000000000D-01 -1.0892821081729D-01  1.0209554450425D+00
54  5.3000000000000D-01 -1.2917124476591D-01  1.0455672514779D+00
55  5.4000000000000D-01 -1.4891539551610D-01  1.0697070120291D+00
56  5.5000000000000D-01 -1.6805749981167D-01  1.0933173409192D+00
57  5.6000000000000D-01 -1.8649492048951D-01  1.1163407809890D+00
58  5.7000000000000D-01 -2.0412593938835D-01  1.1387199874093D+00
59  5.8000000000000D-01 -2.2085015235536D-01  1.1603979137827D+00
60  5.9000000000000D-01 -2.3656886489389D-01  1.1813180000249D+00
61  6.0000000000000D-01 -2.5118548696378D-01  1.2014243613948D+00
62  6.1000000000000D-01 -2.6460592541925D-01  1.2206619780277D+00
63  6.2000000000000D-01 -2.7673897254849D-01  1.2389768843103D+00
64  6.3000000000000D-01 -2.8749668916460D-01  1.2563163574250D+00
65  6.4000000000000D-01 -2.9679478068883D-01  1.2726291043813D+00
66  6.5000000000000D-01 -3.0455296466504D-01  1.2878654468450D+00
67  6.6000000000000D-01 -3.1069532814907D-01  1.3019775030711D+00
68  6.7000000000000D-01 -3.1515067342788D-01  1.3149193662465D+00
69  6.8000000000000D-01 -3.1785285054172D-01  1.3266472785479D+00
70  6.9000000000000D-01 -3.1874107510829D-01  1.3371198002256D+00
71  7.0000000000000D-01 -3.1776022997962D-01  1.3462979730317D+00
72  7.1000000000000D-01 -3.1486114930279D-01  1.3541454773204D+00
73  7.2000000000000D-01 -3.1000088360171D-01  1.3606287821613D+00
74  7.3000000000000D-01 -3.0314294455133D-01  1.3657172878254D+00
75  7.4000000000000D-01 -2.9425752817626D-01  1.3693834600188D+00
76  7.5000000000000D-01 -2.8332171527329D-01  1.3716029552654D+00
77  7.6000000000000D-01 -2.7031964793187D-01  1.3723547368630D+00
78  7.7000000000000D-01 -2.5524268110730D-01  1.3716211808668D+00
79  7.8000000000000D-01 -2.3808950828826D-01  1.3693881715843D+00
80  7.9000000000000D-01 -2.1886626039361D-01  1.3656451861005D+00
81  8.0000000000000D-01 -1.9758657713183D-01  1.3603853673886D+00
82  8.1000000000000D-01 -1.7427165016059D-01  1.3536055856012D+00
83  8.2000000000000D-01 -1.4895023749266D-01  1.3453064871766D+00
84  8.3000000000000D-01 -1.2165864870771D-01  1.3354925314415D+00
85  8.4000000000000D-01 -9.2440700647142D-02  1.3241720144340D+00
86  8.5000000000000D-01 -6.1347643389540D-02  1.3113570797227D+00
87  8.6000000000000D-01 -2.8438056428561D-02  1.2970637160426D+00
88  8.7000000000000D-01  6.2222848985914D-03  1.2813117416233D+00
89  8.8000000000000D-01  4.2560572555968D-02  1.2641247751353D+00
90  8.9000000000000D-01  8.0497158220941D-02  1.2455301932346D+00
91  9.0000000000000D-01  1.1994577452751D-01  1.2255590747389D+00
92  9.1000000000000D-01  1.6081378457423D-01  1.2042461315252D+00
93  9.2000000000000D-01  2.0300245900065D-01  1.1816296262919D+00
94  9.3000000000000D-01  2.4640727980727D-01  1.1577512773850D+00
95  9.4000000000000D-01  2.9091826996747D-01  1.1326561509428D+00
96  9.5000000000000D-01  3.3642034775556D-01  1.1063925406679D+00
97  9.6000000000000D-01  3.8279370459384D-01  1.0790118355889D+00
98  9.7000000000000D-01  4.2991420510448D-01  1.0505683762277D+00
99  9.8000000000000D-01  4.7765380793907D-01  1.0211192996400D+00
100  9.9000000000000D-01  5.2588100585002D-01  9.9072437384598D-01
101  1.0000000000000D+00  5.7446128336732D-01  9.5944582221751D-01
102  1.0100000000000D+00  6.2325759034725D-01  9.2734813843322D-01
103  1.0200000000000D+00  6.7213082956959D-01  8.9449789265889D-01
104  1.0300000000000D+00  7.2094035647941D-01  8.6096352965037D-01
105  1.0400000000000D+00  7.6954448909468D-01  8.2681515951601D-01
106  1.0500000000000D+00  8.1780102603459D-01  7.9212434191168D-01
107  1.0600000000000D+00  8.6556777056818D-01  7.5696386447343D-01
108  1.0700000000000D+00  9.1270305853321D-01  7.2140751632282D-01
109  1.0800000000000D+00  9.5906628793669D-01  6.8552985750641D-01
110  1.0900000000000D+00  1.0045184480205D+00  6.4940598525235D-01
111  1.1000000000000D+00  1.0489226455568D+00  6.1311129794614D-01
112  1.1100000000000D+00  1.0921446261300D+00  5.7672125774112D-01
113  1.1200000000000D+00  1.1340532881610D+00  5.4031115273137D-01
114  1.1300000000000D+00  1.1745211874451D+00  5.0395585962037D-01
115  1.1400000000000D+00  1.2134250299987D+00  4.6772960782033D-01
116  1.1500000000000D+00  1.2506461510403D+00  4.3170574591583D-01
117  1.1600000000000D+00  1.2860709779739D+00  3.9595651142023D-01
118  1.1700000000000D+00  1.3195914753018D+00  3.6055280474131D-01
119  1.1800000000000D+00  1.3511055694661D+00  3.2556396825606D-01
120  1.1900000000000D+00  1.3805175516659D+00  2.9105757138228D-01
121  1.2000000000000D+00  1.4077384568093D+00  2.5709920250585D-01
122  1.2100000000000D+00  1.4326864168459D+00  2.2375226859567D-01
123  1.2200000000000D+00  1.4552869868281D+00  1.9107780330784D-01
124  1.2300000000000D+00  1.4754734421342D+00  1.5913428435565D-01
125  1.2400000000000D+00  1.4931870454538D+00  1.2797746086726D-01
126  1.2500000000000D+00  1.5083772822583D+00  9.7660191412237D-02
127  1.2600000000000D+00  1.5210020635250D+00  6.8232293363901D-02
128  1.2700000000000D+00  1.5310278947513D+00  3.9740404173014D-02
129  1.2800000000000D+00  1.5384300104084D+00  1.2227855087162D-02
130  1.2900000000000D+00  1.5431924730001D+00 -1.4265442154166D-02
131  1.3000000000000D+00  1.5453082362590D+00 -3.9703095249061D-02
132  1.3100000000000D+00  1.5447791720780D+00 -6.4052317515371D-02
133  1.3200000000000D+00  1.5416160608026D+00 -8.7283999959893D-02
134  1.3300000000000D+00  1.5358385449435D+00 -1.0937276903252D-01
135  1.3400000000000D+00  1.5274750463472D+00 -1.3029702985603D-01
136  1.3500000000000D+00  1.5165626469715D+00 -1.5003899476257D-01
137  1.3600000000000D+00  1.5031469338584D+00 -1.6858469714025D-01
138  1.3700000000000D+00  1.4872818087251D+00 -1.8592399052879D-01
139  1.3800000000000D+00  1.4690292629309D+00 -2.0205053303202D-01
140  1.3900000000000D+00  1.4484591188757D+00 -2.1696175724023D-01
141  1.4000000000000D+00  1.4256487385834D+00 -2.3065882572894D-01
142  1.4100000000000D+00  1.4006827009658D+00 -2.4314657250628D-01
143  1.4200000000000D+00  1.3736524489555D+00 -2.5443343065797D-01
144  1.4300000000000D+00  1.3446559079463D+00 -2.6453134653752D-01
145  1.4400000000000D+00  1.3137970773919D+00 -2.7345568103582D-01
146  1.4500000000000D+00  1.2811855969545D+00 -2.8122509825693D-01
147  1.4600000000000D+00  1.2469362894068D+00 -2.8786144229192D-01
148  1.4700000000000D+00  1.2111686820176D+00 -2.9338960257285D-01
149  1.4800000000000D+00  1.1740065085658D+00 -2.9783736847104D-01
150  1.4900000000000D+00  1.1355771942006D+00 -3.0123527386070D-01
151  1.5000000000000D+00  1.0960113252038D+00 -3.0361643226241D-01
152  1.5100000000000D+00  1.0554421061898D+00 -3.0501636346263D-01
153  1.5200000000000D+00  1.0140048068550D+00 -3.0547281224835D-01
154  1.5300000000000D+00  9.7183620088694D-01 -3.0502556020606D-01
155  1.5400000000000D+00  9.2907399931361D-01 -3.0371623133157D-01
156  1.5500000000000D+00  8.8585628085807D-01 -3.0158809237482D-01
157  1.5600000000000D+00  8.4232092167545D-01 -2.9868584876972D-01
158  1.5700000000000D+00  7.9860502704404D-01 -2.9505543705753D-01
159  1.5800000000000D+00  7.5484436730126D-01 -2.9074381469446D-01
160  1.5900000000000D+00  7.1117282070138D-01 -2.8579874817141D-01
161  1.6000000000000D+00  6.6772182520758D-01 -2.8026860030565D-01
162  1.6100000000000D+00  6.2461984207934D-01 -2.7420211768542D-01
163  1.6200000000000D+00  5.8199183286257D-01 -2.6764821903772D-01
164  1.6300000000000D+00  5.3995875279502D-01 -2.6065578556074D-01
165  1.6400000000000D+00  4.9863706184773D-01 -2.5327345388158D-01
166  1.6500000000000D+00  4.5813825641255D-01 -2.4554941270978D-01
167  1.6600000000000D+00  4.1856842253972D-01 -2.3753120374323D-01
168  1.6700000000000D+00  3.8002781362954D-01 -2.2926552789511D-01
169  1.6800000000000D+00  3.4261045314327D-01 -2.2079805728473D-01
170  1.6900000000000D+00  3.0640376511945D-01 -2.1217325404934D-01
171  1.7000000000000D+00  2.7148823264259D-01 -2.0343419627998D-01
172  1.7100000000000D+00  2.3793708697755D-01 -1.9462241213641D-01
173  1.7200000000000D+00  2.0581602697361D-01 -1.8577772226158D-01
174  1.7300000000000D+00  1.7518297148063D-01 -1.7693809157911D-01
175  1.7400000000000D+00  1.4608784311051D-01 -1.6813949018680D-01
176  1.7500000000000D+00  1.1857238649036D-01 -1.5941576457418D-01
177  1.7600000000000D+00  9.2670032292626D-02 -1.5079852263143D-01
178  1.7700000000000D+00  6.8405734013955D-02 -1.4231701090354D-01
179  1.7800000000000D+00  4.5796031825415D-02 -1.3399806199701D-01
180  1.7900000000000D+00  2.4848881066948D-02 -1.2586596741858D-01
181  1.8000000000000D+00  5.5633690889365D-03 -1.1794232729967D-01
182  1.8100000000000D+00 -1.2069580693245D-02 -1.1024618662057D-01
183  1.8200000000000D+00 -2.8066664232408D-02 -1.0279412213385D-01
184  1.8300000000000D+00 -4.2451616313910D-02 -9.5600371355886D-02
185  1.8400000000000D+00 -5.5254337500027D-02 -8.8677052676512D-02
186  1.8500000000000D+00 -6.6510535357025D-02 -8.2034238442104D-02
187  1.8600000000000D+00 -7.6261661145031D-02 -7.5679949582716D-02
188  1.8700000000000D+00 -8.4554644037001D-02 -6.9620210919596D-02
189  1.8800000000000D+00 -9.1441491064164D-02 -6.3859142605633D-02
190  1.8900000000000D+00 -9.6978998365520D-02 -5.8399024468692D-02
191  1.9000000000000D+00 -1.0122838002438D-01 -5.3240385049590D-02
192  1.9100000000000D+00 -1.0425490140087D-01 -4.8382091199449D-02
193  1.9200000000000D+00 -1.0612749129701D-01 -4.3821445603768D-02
194  1.9300000000000D+00 -1.0691834103809D-01 -3.9554289649659D-02
195  1.9400000000000D+00 -1.0670249091480D-01 -3.5575111623529D-02
196  1.9500000000000D+00 -1.0555740672622D-01 -3.1877159281865D-02
197  1.9600000000000D+00 -1.0356254839938D-01 -2.8452556170929D-02
198  1.9700000000000D+00 -1.0079893244365D-01 -2.5292421161909D-02
199  1.9800000000000D+00 -9.7348690762481D-02 -2.2386990283940D-02
200  1.9900000000000D+00 -9.3294627722095D-02 -1.9725740353254D-02
201  2.0000000000000D+00 -8.8719777424243D-02 -1.7297513624777D-02
202  2.0100000000000D+00 -8.3706963821851D-02 -1.5090642693368D-02
203  2.0200000000000D+00 -7.8338365176598D-02 -1.3093075084751D-02
204  2.0300000000000D+00 -7.2695085094859D-02 -1.1292496795897D-02
205  2.0400000000000D+00 -6.6856732948528D-02 -9.6764538820056D-03
206  2.0500000000000D+00 -6.0901013581585D-02 -8.2324720470313D-03
207  2.0600000000000D+00 -5.4903331414662D-02 -6.9481726030729D-03
208  2.0700000000000D+00 -4.8936407469215D-02 -5.8113852187552D-03
209  2.0800000000000D+00 -4.3069913304006D-02 -4.8102561455270D-03
210  2.0900000000000D+00 -3.7370123701867D-02 -3.9333512962947D-03
211  2.1000000000000D+00 -3.1899586582566D-02 -3.1697546557069D-03
212  2.1100000000000D+00 -2.6716817418621D-02 -2.5091596004371D-03
213  2.1200000000000D+00 -2.1876013192902D-02 -1.9419547617078D-03
214  2.1300000000000D+00 -1.7426892375238D-02 -1.4593050569066D-03
215  2.1400000000000D+00 -1.3418422142797D-02 -1.0533236468879D-03
216  2.1500000000000D+00 -9.8806198798866D-03 -7.1667686152414D-04
217  2.1600000000000D+00 -6.8365656297722D-03 -4.4337653657193D-04
218  2.1700000000000D+00 -4.3335513142888D-03 -2.2835495156912D-04
219  2.1800000000000D+00 -2.4367274384492D-03 -6.7466350616557D-05
220  2.1900000000000D+00 -1.1869608706904D-03  4.5046371769740D-05
221  2.2000000000000D+00 -4.6839405127870D-04  1.0506489204142D-04
222  2.2100000000000D+00 -1.2638663243607D-04  1.1069139228728D-04
223  2.2200000000000D+00 -1.5448522077945D-06  6.9703881194817D-05
224  2.2300000000000D+00  8.1562627127133D-06  1.7404430907549D-05
225  2.2400000000000D+00 -8.0246740142906D-06 -1.1804551168289D-05
226  2.2500000000000D+00 -1.1502689315879D-05 -1.2976085294958D-05
227  2.2600000000000D+00 -1.0020483873335D-06 -9.7442167474301D-07
228  2.2700000000000D+00  1.0815036107585D-06  3.0261492732425D-06
229  2.2800000000000D+00  1.0442921464650D-06  2.3818376281465D-06
230  2.2900000000000D+00  1.5509286053736D-07 -9.4070440652063D-08
231  2.3000000000000D+00  5.3894108837206D-07 -3.2689077687397D-07
232  2.3100000000000D+00  2.9139981292783D-07 -1.7674642606419D-07
233  2.3200000000000D+00  0.0000000000000D+00  0.0000000000000D+00
234  2.3300000000000D+00  0.0000000000000D+00  0.0000000000000D+00
235  2.3400000000000D+00  0.0000000000000D+00  0.0000000000000D+00
236  2.3500000000000D+00  0.0000000000000D+00  0.0000000000000D+00
237  2.3600000000000D+00  0.0000000000000D+00  0.0000000000000D+00
238  2.3700000000000D+00  0.0000000000000D+00  0.0000000000000D+00
239  2.3800000000000D+00  0.0000000000000D+00  0.0000000000000D+00
240  2.3900000000000D+00  0.0000000000000D+00  0.0000000000000D+00
241  2.4000000000000D+00  0.0000000000000D+00  0.0000000000000D+00
242  2.4100000000000D+00  0.0000000000000D+00  0.0000000000000D+00
243  2.4200000000000D+00  0.0000000000000D+00  0.0000000000000D+00
244  2.4300000000000D+00  0.0000000000000D+00  0.0000000000000D+00
245  2.4400000000000D+00  0.0000000000000D+00  0.0000000000000D+00
246  2.4500000000000D+00  0.0000000000000D+00  0.0000000000000D+00
247  2.4600000000000D+00  0.0000000000000D+00  0.0000000000000D+00
248  2.4700000000000D+00  0.0000000000000D+00  0.0000000000000D+00
249  2.4800000000000D+00  0.0000000000000D+00  0.0000000000000D+00
250  2.4900000000000D+00  0.0000000000000D+00  0.0000000000000D+00
251  2.5000000000000D+00  0.0000000000000D+00  0.0000000000000D+00
252  2.5100000000000D+00  0.0000000000000D+00  0.0000000000000D+00
253  2.5200000000000D+00  0.0000000000000D+00  0.0000000000000D+00
254  2.5300000000000D+00  0.0000000000000D+00  0.0000000000000D+00
255  2.5400000000000D+00  0.0000000000000D+00  0.0000000000000D+00
256  2.5500000000000D+00  0.0000000000000D+00  0.0000000000000D+00
257  2.5600000000000D+00  0.0000000000000D+00  0.0000000000000D+00
258  2.5700000000000D+00  0.0000000000000D+00  0.0000000000000D+00
259  2.5800000000000D+00  0.0000000000000D+00  0.0000000000000D+00
260  2.5900000000000D+00  0.0000000000000D+00  0.0000000000000D+00
261  2.6000000000000D+00  0.0000000000000D+00  0.0000000000000D+00
262  2.6100000000000D+00  0.0000000000000D+00  0.0000000000000D+00
263  2.6200000000000D+00  0.0000000000000D+00  0.0000000000000D+00
264  2.6300000000000D+00  0.0000000000000D+00  0.0000000000000D+00
265  2.6400000000000D+00  0.0000000000000D+00  0.0000000000000D+00
266  2.6500000000000D+00  0.0000000000000D+00  0.0000000000000D+00
267  2.6600000000000D+00  0.0000000000000D+00  0.0000000000000D+00
268  2.6700000000000D+00  0.0000000000000D+00  0.0000000000000D+00
269  2.6800000000000D+00  0.0000000000000D+00  0.0000000000000D+00
270  2.6900000000000D+00  0.0000000000000D+00  0.0000000000000D+00
271  2.7000000000000D+00  0.0000000000000D+00  0.0000000000000D+00
272  2.7100000000000D+00  0.0000000000000D+00  0.0000000000000D+00
273  2.7200000000000D+00  0.0000000000000D+00  0.0000000000000D+00
274  2.7300000000000D+00  0.0000000000000D+00  0.0000000000000D+00
275  2.7400000000000D+00  0.0000000000000D+00  0.0000000000000D+00
276  2.7500000000000D+00  0.0000000000000D+00  0.0000000000000D+00
277  2.7600000000000D+00  0.0000000000000D+00  0.0000000000000D+00
278  2.7700000000000D+00  0.0000000000000D+00  0.0000000000000D+00
279  2.7800000000000D+00  0.0000000000000D+00  0.0000000000000D+00
280  2.7900000000000D+00  0.0000000000000D+00  0.0000000000000D+00
281  2.8000000000000D+00  0.0000000000000D+00  0.0000000000000D+00
282  2.8100000000000D+00  0.0000000000000D+00  0.0000000000000D+00
283  2.8200000000000D+00  0.0000000000000D+00  0.0000000000000D+00
284  2.8300000000000D+00  0.0000000000000D+00  0.0000000000000D+00
285  2.8400000000000D+00  0.0000000000000D+00  0.0000000000000D+00
286  2.8500000000000D+00  0.0000000000000D+00  0.0000000000000D+00
287  2.8600000000000D+00  0.0000000000000D+00  0.0000000000000D+00
288  2.8700000000000D+00  0.0000000000000D+00  0.0000000000000D+00
289  2.8800000000000D+00  0.0000000000000D+00  0.0000000000000D+00
290  2.8900000000000D+00  0.0000000000000D+00  0.0000000000000D+00
291  2.9000000000000D+00  0.0000000000000D+00  0.0000000000000D+00
292  2.9100000000000D+00  0.0000000000000D+00  0.0000000000000D+00
293  2.9200000000000D+00  0.0000000000000D+00  0.0000000000000D+00
294  2.9300000000000D+00  0.0000000000000D+00  0.0000000000000D+00
295  2.9400000000000D+00  0.0000000000000D+00  0.0000000000000D+00
296  2.9500000000000D+00  0.0000000000000D+00  0.0000000000000D+00
297  2.9600000000000D+00  0.0000000000000D+00  0.0000000000000D+00
298  2.9700000000000D+00  0.0000000000000D+00  0.0000000000000D+00
299  2.9800000000000D+00  0.0000000000000D+00  0.0000000000000D+00
300  2.9900000000000D+00  0.0000000000000D+00  0.0000000000000D+00
301  3.0000000000000D+00  0.0000000000000D+00  0.0000000000000D+00
302  3.0100000000000D+00  0.0000000000000D+00  0.0000000000000D+00
303  3.0200000000000D+00  0.0000000000000D+00  0.0000000000000D+00
304  3.0300000000000D+00  0.0000000000000D+00  0.0000000000000D+00
305  3.0400000000000D+00  0.0000000000000D+00  0.0000000000000D+00
306  3.0500000000000D+00  0.0000000000000D+00  0.0000000000000D+00
307  3.0600000000000D+00  0.0000000000000D+00  0.0000000000000D+00
308  3.0700000000000D+00  0.0000000000000D+00  0.0000000000000D+00
309  3.0800000000000D+00  0.0000000000000D+00  0.0000000000000D+00
310  3.0900000000000D+00  0.0000000000000D+00  0.0000000000000D+00
311  3.1000000000000D+00  0.0000000000000D+00  0.0000000000000D+00
312  3.1100000000000D+00  0.0000000000000D+00  0.0000000000000D+00
313  3.1200000000000D+00  0.0000000000000D+00  0.0000000000000D+00
314  3.1300000000000D+00  0.0000000000000D+00  0.0000000000000D+00
315  3.1400000000000D+00  0.0000000000000D+00  0.0000000000000D+00
316  3.1500000000000D+00  0.0000000000000D+00  0.0000000000000D+00
317  3.1600000000000D+00  0.0000000000000D+00  0.0000000000000D+00
318  3.1700000000000D+00  0.0000000000000D+00  0.0000000000000D+00
319  3.1800000000000D+00  0.0000000000000D+00  0.0000000000000D+00
320  3.1900000000000D+00  0.0000000000000D+00  0.0000000000000D+00
321  3.2000000000000D+00  0.0000000000000D+00  0.0000000000000D+00
322  3.2100000000000D+00  0.0000000000000D+00  0.0000000000000D+00
323  3.2200000000000D+00  0.0000000000000D+00  0.0000000000000D+00
324  3.2300000000000D+00  0.0000000000000D+00  0.0000000000000D+00
325  3.2400000000000D+00  0.0000000000000D+00  0.0000000000000D+00
326  3.2500000000000D+00  0.0000000000000D+00  0.0000000000000D+00
327  3.2600000000000D+00  0.0000000000000D+00  0.0000000000000D+00
328  3.2700000000000D+00  0.0000000000000D+00  0.0000000000000D+00
329  3.2800000000000D+00  0.0000000000000D+00  0.0000000000000D+00
330  3.2900000000000D+00  0.0000000000000D+00  0.0000000000000D+00
331  3.3000000000000D+00  0.0000000000000D+00  0.0000000000000D+00
332  3.3100000000000D+00  0.0000000000000D+00  0.0000000000000D+00
333  3.3200000000000D+00  0.0000000000000D+00  0.0000000000000D+00
334  3.3300000000000D+00  0.0000000000000D+00  0.0000000000000D+00
335  3.3400000000000D+00  0.0000000000000D+00  0.0000000000000D+00
336  3.3500000000000D+00  0.0000000000000D+00  0.0000000000000D+00
337  3.3600000000000D+00  0.0000000000000D+00  0.0000000000000D+00
338  3.3700000000000D+00  0.0000000000000D+00  0.0000000000000D+00
339  3.3800000000000D+00  0.0000000000000D+00  0.0000000000000D+00
340  3.3900000000000D+00  0.0000000000000D+00  0.0000000000000D+00
341  3.4000000000000D+00  0.0000000000000D+00  0.0000000000000D+00
342  3.4100000000000D+00  0.0000000000000D+00  0.0000000000000D+00
343  3.4200000000000D+00  0.0000000000000D+00  0.0000000000000D+00
344  3.4300000000000D+00  0.0000000000000D+00  0.0000000000000D+00
345  3.4400000000000D+00  0.0000000000000D+00  0.0000000000000D+00
346  3.4500000000000D+00  0.0000000000000D+00  0.0000000000000D+00
347  3.4600000000000D+00  0.0000000000000D+00  0.0000000000000D+00
348  3.4700000000000D+00  0.0000000000000D+00  0.0000000000000D+00
349  3.4800000000000D+00  0.0000000000000D+00  0.0000000000000D+00
350  3.4900000000000D+00  0.0000000000000D+00  0.0000000000000D+00
351  3.5000000000000D+00  0.0000000000000D+00  0.0000000000000D+00
352  3.5100000000000D+00  0.0000000000000D+00  0.0000000000000D+00
353  3.5200000000000D+00  0.0000000000000D+00  0.0000000000000D+00
354  3.5300000000000D+00  0.0000000000000D+00  0.0000000000000D+00
355  3.5400000000000D+00  0.0000000000000D+00  0.0000000000000D+00
356  3.5500000000000D+00  0.0000000000000D+00  0.0000000000000D+00
357  3.5600000000000D+00  0.0000000000000D+00  0.0000000000000D+00
358  3.5700000000000D+00  0.0000000000000D+00  0.0000000000000D+00
359  3.5800000000000D+00  0.0000000000000D+00  0.0000000000000D+00
360  3.5900000000000D+00  0.0000000000000D+00  0.0000000000000D+00
361  3.6000000000000D+00  0.0000000000000D+00  0.0000000000000D+00
362  3.6100000000000D+00  0.0000000000000D+00  0.0000000000000D+00
363  3.6200000000000D+00  0.0000000000000D+00  0.0000000000000D+00
364  3.6300000000000D+00  0.0000000000000D+00  0.0000000000000D+00
365  3.6400000000000D+00  0.0000000000000D+00  0.0000000000000D+00
366  3.6500000000000D+00  0.0000000000000D+00  0.0000000000000D+00
367  3.6600000000000D+00  0.0000000000000D+00  0.0000000000000D+00
368  3.6700000000000D+00  0.0000000000000D+00  0.0000000000000D+00
369  3.6800000000000D+00  0.0000000000000D+00  0.0000000000000D+00
370  3.6900000000000D+00  0.0000000000000D+00  0.0000000000000D+00
371  3.7000000000000D+00  0.0000000000000D+00  0.0000000000000D+00
372  3.7100000000000D+00  0.0000000000000D+00  0.0000000000000D+00
373  3.7200000000000D+00  0.0000000000000D+00  0.0000000000000D+00
374  3.7300000000000D+00  0.0000000000000D+00  0.0000000000000D+00
375  3.7400000000000D+00  0.0000000000000D+00  0.0000000000000D+00
376  3.7500000000000D+00  0.0000000000000D+00  0.0000000000000D+00
377  3.7600000000000D+00  0.0000000000000D+00  0.0000000000000D+00
378  3.7700000000000D+00  0.0000000000000D+00  0.0000000000000D+00
379  3.7800000000000D+00  0.0000000000000D+00  0.0000000000000D+00
380  3.7900000000000D+00  0.0000000000000D+00  0.0000000000000D+00
381  3.8000000000000D+00  0.0000000000000D+00  0.0000000000000D+00
382  3.8100000000000D+00  0.0000000000000D+00  0.0000000000000D+00
383  3.8200000000000D+00  0.0000000000000D+00  0.0000000000000D+00
384  3.8300000000000D+00  0.0000000000000D+00  0.0000000000000D+00
385  3.8400000000000D+00  0.0000000000000D+00  0.0000000000000D+00
386  3.8500000000000D+00  0.0000000000000D+00  0.0000000000000D+00
387  3.8600000000000D+00  0.0000000000000D+00  0.0000000000000D+00
388  3.8700000000000D+00  0.0000000000000D+00  0.0000000000000D+00
389  3.8800000000000D+00  0.0000000000000D+00  0.0000000000000D+00
390  3.8900000000000D+00  0.0000000000000D+00  0.0000000000000D+00
391  3.9000000000000D+00  0.0000000000000D+00  0.0000000000000D+00
392  3.9100000000000D+00  0.0000000000000D+00  0.0000000000000D+00
393  3.9200000000000D+00  0.0000000000000D+00  0.0000000000000D+00
394  3.9300000000000D+00  0.0000000000000D+00  0.0000000000000D+00
395  3.9400000000000D+00  0.0000000000000D+00  0.0000000000000D+00
396  3.9500000000000D+00  0.0000000000000D+00  0.0000000000000D+00
397  3.9600000000000D+00  0.0000000000000D+00  0.0000000000000D+00
398  3.9700000000000D+00  0.0000000000000D+00  0.0000000000000D+00
399  3.9800000000000D+00  0.0000000000000D+00  0.0000000000000D+00
400  3.9900000000000D+00  0.0000000000000D+00  0.0000000000000D+00
401  4.0000000000000D+00  0.0000000000000D+00  0.0000000000000D+00
402  4.0100000000000D+00  0.0000000000000D+00  0.0000000000000D+00
403  4.0200000000000D+00  0.0000000000000D+00  0.0000000000000D+00
404  4.0300000000000D+00  0.0000000000000D+00  0.0000000000000D+00
405  4.0400000000000D+00  0.0000000000000D+00  0.0000000000000D+00
406  4.0500000000000D+00  0.0000000000000D+00  0.0000000000000D+00
407  4.0600000000000D+00  0.0000000000000D+00  0.0000000000000D+00
408  4.0700000000000D+00  0.0000000000000D+00  0.0000000000000D+00
409  4.0800000000000D+00  0.0000000000000D+00  0.0000000000000D+00
410  4.0900000000000D+00  0.0000000000000D+00  0.0000000000000D+00
411  4.1000000000000D+00  0.0000000000000D+00  0.0000000000000D+00
412  4.1100000000000D+00  0.0000000000000D+00  0.0000000000000D+00
413  4.1200000000000D+00  0.0000000000000D+00  0.0000000000000D+00
414  4.1300000000000D+00  0.0000000000000D+00  0.0000000000000D+00
415  4.1400000000000D+00  0.0000000000000D+00  0.0000000000000D+00
416  4.1500000000000D+00  0.0000000000000D+00  0.0000000000000D+00
417  4.1600000000000D+00  0.0000000000000D+00  0.0000000000000D+00
418  4.1700000000000D+00  0.0000000000000D+00  0.0000000000000D+00
419  4.1800000000000D+00  0.0000000000000D+00  0.0000000000000D+00
420  4.1900000000000D+00  0.0000000000000D+00  0.0000000000000D+00
421  4.2000000000000D+00  0.0000000000000D+00  0.0000000000000D+00
422  4.2100000000000D+00  0.0000000000000D+00  0.0000000000000D+00
423  4.2200000000000D+00  0.0000000000000D+00  0.0000000000000D+00
424  4.2300000000000D+00  0.0000000000000D+00  0.0000000000000D+00
425  4.2400000000000D+00  0.0000000000000D+00  0.0000000000000D+00
426  4.2500000000000D+00  0.0000000000000D+00  0.0000000000000D+00
427  4.2600000000000D+00  0.0000000000000D+00  0.0000000000000D+00
428  4.2700000000000D+00  0.0000000000000D+00  0.0000000000000D+00
429  4.2800000000000D+00  0.0000000000000D+00  0.0000000000000D+00
430  4.2900000000000D+00  0.0000000000000D+00  0.0000000000000D+00
431  4.3000000000000D+00  0.0000000000000D+00  0.0000000000000D+00
432  4.3100000000000D+00  0.0000000000000D+00  0.0000000000000D+00
433  4.3200000000000D+00  0.0000000000000D+00  0.0000000000000D+00
434  4.3300000000000D+00  0.0000000000000D+00  0.0000000000000D+00
435  4.3400000000000D+00  0.0000000000000D+00  0.0000000000000D+00
436  4.3500000000000D+00  0.0000000000000D+00  0.0000000000000D+00
437  4.3600000000000D+00  0.0000000000000D+00  0.0000000000000D+00
438  4.3700000000000D+00  0.0000000000000D+00  0.0000000000000D+00
439  4.3800000000000D+00  0.0000000000000D+00  0.0000000000000D+00
440  4.3900000000000D+00  0.0000000000000D+00  0.0000000000000D+00
441  4.4000000000000D+00  0.0000000000000D+00  0.0000000000000D+00
442  4.4100000000000D+00  0.0000000000000D+00  0.0000000000000D+00
443  4.4200000000000D+00  0.0000000000000D+00  0.0000000000000D+00