Ru    ONCVPSP-3.3.0  r_core=   1.35650   1.40592   1.30881
44.0000     16.0000      180430    zatom,zion,pspd
8 -116133   2     4   600     0    pspcod,pspxc,lmax,lloc,mmax,r2well
5.99000000  7.00000000  0.00000000    rchrg fchrg qchrg
2     4     3     0    nproj
3     1           extension_switch
4     4     0    nprojso
0                         1.1426374969710D+00  1.4595598725307D+01
1  0.0000000000000D+00  4.3499399082769D-09 -8.4664664168344D-10
2  1.0000000000000D-02 -4.1031415811863D-02  7.1953242461357D-02
3  2.0000000000000D-02 -8.1731912779622D-02  1.4373921003535D-01
4  3.0000000000000D-02 -1.2177458937698D-01  2.1519155219271D-01
5  4.0000000000000D-02 -1.6084051231767D-01  2.8614575438355D-01
6  5.0000000000000D-02 -1.9862253582007D-01  3.5644002440588D-01
7  6.0000000000000D-02 -2.3482892620125D-01  4.2591614144352D-01
8  7.0000000000000D-02 -2.6918673211374D-01  4.9442025634333D-01
9  8.0000000000000D-02 -3.0144484508875D-01  5.6180363254843D-01
10  9.0000000000000D-02 -3.3137670035051D-01  6.2792331813490D-01
11  1.0000000000000D-01 -3.5878257403171D-01  6.9264274059787D-01
12  1.1000000000000D-01 -3.8349143984691D-01  7.5583221737717D-01
13  1.2000000000000D-01 -4.0536235585504D-01  8.1736937658122D-01
14  1.3000000000000D-01 -4.2428536003679D-01  8.7713948393478D-01
15  1.4000000000000D-01 -4.4018186189464D-01  9.3503567361465D-01
16  1.5000000000000D-01 -4.5300452600904D-01  9.9095908231976D-01
17  1.6000000000000D-01 -4.6273665230848D-01  1.0448188876186D+00
18  1.7000000000000D-01 -4.6939106658489D-01  1.0965322532984D+00
19  1.8000000000000D-01 -4.7300854336111D-01  1.1460241860781D+00
20  1.9000000000000D-01 -4.7365579144596D-01  1.1932273096101D+00
21  2.0000000000000D-01 -4.7142304025734D-01  1.2380815631594D+00
22  2.1000000000000D-01 -4.6642127211630D-01  1.2805338336830D+00
23  2.2000000000000D-01 -4.5877915209476D-01  1.3205375312184D+00
24  2.3000000000000D-01 -4.4863971252099D-01  1.3580521184952D+00
25  2.4000000000000D-01 -4.3615685381093D-01  1.3930426065078D+00
26  2.5000000000000D-01 -4.2149172681676D-01  1.4254790283873D+00
27  2.6000000000000D-01 -4.0480906429732D-01  1.4553359043049D+00
28  2.7000000000000D-01 -3.8627353036933D-01  1.4825917102883D+00
29  2.8000000000000D-01 -3.6604615686225D-01  1.5072283637567D+00
30  2.9000000000000D-01 -3.4428093436175D-01  1.5292307382604D+00
31  3.0000000000000D-01 -3.2112162339529D-01  1.5485862193605D+00
32  3.1000000000000D-01 -2.9669884771685D-01  1.5652843128035D+00
33  3.2000000000000D-01 -2.7112752703400D-01  1.5793163151507D+00
34  3.3000000000000D-01 -2.4450470085725D-01  1.5906750558225D+00
35  3.4000000000000D-01 -2.1690778852232D-01  1.5993547181376D+00
36  3.5000000000000D-01 -1.8839332294656D-01  1.6053507453789D+00
37  3.6000000000000D-01 -1.5899618744424D-01  1.6086598362387D+00
38  3.7000000000000D-01 -1.2872937607880D-01  1.6092800322013D+00
39  3.8000000000000D-01 -9.7584288712260D-02  1.6072108975490D+00
40  3.9000000000000D-01 -6.5531562278768D-02  1.6024537907542D+00
41  4.0000000000000D-01 -3.2522430019924D-02  1.5950122240822D+00
42  4.1000000000000D-01  1.5094093616194D-03  1.5848923063095D+00
43  4.2000000000000D-01  3.6645440278816D-02  1.5721032615906D+00
44  4.3000000000000D-01  7.2979533479938D-02  1.5566580157234D+00
45  4.4000000000000D-01  1.1061474958379D-01  1.5385738393949D+00
46  4.5000000000000D-01  1.4965979670317D-01  1.5178730364725D+00
47  4.6000000000000D-01  1.9022520322091D-01  1.4945836640629D+00
48  4.7000000000000D-01  2.3241927313256D-01  1.4687402699300D+00
49  4.8000000000000D-01  2.7634389665262D-01  1.4403846319527D+00
50  4.9000000000000D-01  3.2209029289412D-01  1.4095664836498D+00
51  5.0000000000000D-01  3.6973476428337D-01  1.3763442094065D+00
52  5.1000000000000D-01  4.1933454389871D-01  1.3407854929236D+00
53  5.2000000000000D-01  4.7092381707326D-01  1.3029679025846D+00
54  5.3000000000000D-01  5.2450999735362D-01  1.2629793978979D+00
55  5.4000000000000D-01  5.8007033426303D-01  1.2209187419208D+00
56  5.5000000000000D-01  6.3754892628701D-01  1.1768958056046D+00
57  5.6000000000000D-01  6.9685420714470D-01  1.1310317513012D+00
58  5.7000000000000D-01  7.5785696678709D-01  1.0834590842281D+00
59  5.8000000000000D-01  8.2038896075835D-01  1.0343215624799D+00
60  5.9000000000000D-01  8.8424215270887D-01  9.8377395816901D-01
61  6.0000000000000D-01  9.4916862504146D-01  9.3198166446441D-01
62  6.1000000000000D-01  1.0148811821074D+00  8.7912014561786D-01
63  6.2000000000000D-01  1.0810546591781D+00  8.2537422950900D-01
64  6.3000000000000D-01  1.1473279387513D+00  7.7093724476028D-01
65  6.4000000000000D-01  1.2133066639160D+00  7.1601000700942D-01
66  6.5000000000000D-01  1.2785666264852D+00  6.6079966148405D-01
67  6.6000000000000D-01  1.3426577958207D+00  6.0551839151036D-01
68  6.7000000000000D-01  1.4051089428169D+00  5.5038200498776D-01
69  6.8000000000000D-01  1.4654328025197D+00  4.9560841314458D-01
70  6.9000000000000D-01  1.5231317086665D+00  4.4141601798470D-01
71  7.0000000000000D-01  1.5777036241241D+00  3.8802202672825D-01
72  7.1000000000000D-01  1.6286484829546D+00  3.3564071319988D-01
73  7.2000000000000D-01  1.6754747528334D+00  2.8448164749309D-01
74  7.3000000000000D-01  1.7177061209158D+00  2.3474791630721D-01
75  7.4000000000000D-01  1.7548882020889D+00  1.8663435709944D-01
76  7.5000000000000D-01  1.7865951659753D+00  1.4032582959372D-01
77  7.6000000000000D-01  1.8124361781119D+00  9.5995548232173D-02
78  7.7000000000000D-01  1.8320615514923D+00  5.3803498831526D-02
79  7.8000000000000D-01  1.8451685071090D+00  1.3894962019293D-02
80  7.9000000000000D-01  1.8515064462806D+00 -2.3600835025233D-02
81  8.0000000000000D-01  1.8508816433327D+00 -5.8571918401331D-02
82  8.1000000000000D-01  1.8431612745717D+00 -9.0924600500593D-02
83  8.2000000000000D-01  1.8282767083331D+00 -1.2058432986502D-01
84  8.3000000000000D-01  1.8062259910912D+00 -1.4749634388473D-01
85  8.4000000000000D-01  1.7770754760288D+00 -1.7162611291762D-01
86  8.5000000000000D-01  1.7409605529234D+00 -1.9295956721633D-01
87  8.6000000000000D-01  1.6980854515125D+00 -2.1150310102499D-01
88  8.7000000000000D-01  1.6487221044578D+00 -2.2728335131578D-01
89  8.8000000000000D-01  1.5932080704144D+00 -2.4034675182476D-01
90  8.9000000000000D-01  1.5319435322942D+00 -2.5075886626907D-01
91  9.0000000000000D-01  1.4653874003644D+00 -2.5860350783297D-01
92  9.1000000000000D-01  1.3940525640999D+00 -2.6398165514619D-01
93  9.2000000000000D-01  1.3185003504722D+00 -2.6701017799539D-01
94  9.3000000000000D-01  1.2393342593900D+00 -2.6782038885780D-01
95  9.4000000000000D-01  1.1571930590648D+00 -2.6655643897861D-01
96  9.5000000000000D-01  1.0727433349755D+00 -2.6337358008589D-01
97  9.6000000000000D-01  9.8667159562863D-01 -2.5843631490814D-01
98  9.7000000000000D-01  8.9967604631290D-01 -2.5191646139313D-01
99  9.8000000000000D-01  8.1245814836989D-01 -2.4399115689632D-01
100  9.9000000000000D-01  7.2571408593423D-01 -2.3484082956117D-01
101  1.0000000000000D+00  6.4012626483618D-01 -2.2464716470125D-01
102  1.0100000000000D+00  5.5635496888467D-01 -2.1359109409957D-01
103  1.0200000000000D+00  4.7503029743694D-01 -2.0185083584820D-01
104  1.0300000000000D+00  3.9674450483332D-01 -1.8960001162296D-01
105  1.0400000000000D+00  3.2204485681337D-01 -1.7700586709702D-01
106  1.0500000000000D+00  2.5142711194047D-01 -1.6422761965665D-01
107  1.0600000000000D+00  1.8532972724979D-01 -1.5141495566933D-01
108  1.0700000000000D+00  1.2412887610354D-01 -1.3870669711933D-01
109  1.0800000000000D+00  6.8134354574368D-02 -1.2622965490030D-01
110  1.0900000000000D+00  1.7586438457533D-02 -1.1409768297607D-01
111  1.1000000000000D+00 -2.7346260872561D-02 -1.0241094461735D-01
112  1.1100000000000D+00 -6.6567909213467D-02 -9.1255398534247D-02
113  1.1200000000000D+00 -1.0005551549204D-01 -8.0702509018131D-02
114  1.1300000000000D+00 -1.2785795133022D-01 -7.0809180791738D-02
115  1.1400000000000D+00 -1.5009394214362D-01 -6.1617915479799D-02
116  1.1500000000000D+00 -1.6694906201931D-01 -5.3157183518396D-02
117  1.1600000000000D+00 -1.7867178470581D-01 -4.5442000980831D-02
118  1.1700000000000D+00 -1.8556865620762D-01 -3.8474697952844D-02
119  1.1800000000000D+00 -1.8799866895030D-01 -3.2245861959856D-02
120  1.1900000000000D+00 -1.8636693122493D-01 -2.6735436976307D-02
121  1.2000000000000D+00 -1.8111773944332D-01 -2.1913955552306D-02
122  1.2100000000000D+00 -1.7272716989850D-01 -1.7743879599208D-02
123  1.2200000000000D+00 -1.6169531337371D-01 -1.4181023935429D-02
124  1.2300000000000D+00 -1.4853828781080D-01 -1.1176034102806D-02
125  1.2400000000000D+00 -1.3378016481141D-01 -8.6758898195817D-03
126  1.2500000000000D+00 -1.1794494940431D-01 -6.6254046301137D-03
127  1.2600000000000D+00 -1.0154875525615D-01 -4.9686916820446D-03
128  1.2700000000000D+00 -8.5092326397691D-02 -3.6505640198049D-03
129  1.2800000000000D+00 -6.9053978276395D-02 -2.6178521990454D-03
130  1.2900000000000D+00 -5.3883189545876D-02 -1.8205936465866D-03
131  1.3000000000000D+00 -3.9994407129929D-02 -1.2131707330319D-03
132  1.3100000000000D+00 -2.7766365656282D-02 -7.5474123693789D-04
133  1.3200000000000D+00 -1.7529788892141D-02 -4.1112652646024D-04
134  1.3300000000000D+00 -9.4925656949560D-03 -1.5798872445845D-04
135  1.3400000000000D+00 -3.9941541448013D-03  2.0305779169341D-05
136  1.3500000000000D+00 -1.2333039240423D-03  1.2948732101221D-04
137  1.3600000000000D+00 -2.5066895457403D-04  1.2072232358393D-04
138  1.3700000000000D+00 -1.1432597262071D-05  2.3791111031950D-05
139  1.3800000000000D+00 -1.2324950895641D-06 -1.6989481937870D-05
140  1.3900000000000D+00 -4.6242486566113D-07  6.6223370435941D-07
141  1.4000000000000D+00 -1.5149918847797D-06  3.1688408144800D-06
142  1.4100000000000D+00  1.0166785402983D-06 -3.0110269534719D-07
143  1.4200000000000D+00  6.3809453427021D-07 -1.8898007240194D-07
144  1.4300000000000D+00  0.0000000000000D+00  0.0000000000000D+00
145  1.4400000000000D+00  0.0000000000000D+00  0.0000000000000D+00
146  1.4500000000000D+00  0.0000000000000D+00  0.0000000000000D+00
147  1.4600000000000D+00  0.0000000000000D+00  0.0000000000000D+00
148  1.4700000000000D+00  0.0000000000000D+00  0.0000000000000D+00
149  1.4800000000000D+00  0.0000000000000D+00  0.0000000000000D+00
150  1.4900000000000D+00  0.0000000000000D+00  0.0000000000000D+00
151  1.5000000000000D+00  0.0000000000000D+00  0.0000000000000D+00
152  1.5100000000000D+00  0.0000000000000D+00  0.0000000000000D+00
153  1.5200000000000D+00  0.0000000000000D+00  0.0000000000000D+00
154  1.5300000000000D+00  0.0000000000000D+00  0.0000000000000D+00
155  1.5400000000000D+00  0.0000000000000D+00  0.0000000000000D+00
156  1.5500000000000D+00  0.0000000000000D+00  0.0000000000000D+00
157  1.5600000000000D+00  0.0000000000000D+00  0.0000000000000D+00
158  1.5700000000000D+00  0.0000000000000D+00  0.0000000000000D+00
159  1.5800000000000D+00  0.0000000000000D+00  0.0000000000000D+00
160  1.5900000000000D+00  0.0000000000000D+00  0.0000000000000D+00
161  1.6000000000000D+00  0.0000000000000D+00  0.0000000000000D+00
162  1.6100000000000D+00  0.0000000000000D+00  0.0000000000000D+00
163  1.6200000000000D+00  0.0000000000000D+00  0.0000000000000D+00
164  1.6300000000000D+00  0.0000000000000D+00  0.0000000000000D+00
165  1.6400000000000D+00  0.0000000000000D+00  0.0000000000000D+00
166  1.6500000000000D+00  0.0000000000000D+00  0.0000000000000D+00
167  1.6600000000000D+00  0.0000000000000D+00  0.0000000000000D+00
168  1.6700000000000D+00  0.0000000000000D+00  0.0000000000000D+00
169  1.6800000000000D+00  0.0000000000000D+00  0.0000000000000D+00
170  1.6900000000000D+00  0.0000000000000D+00  0.0000000000000D+00
171  1.7000000000000D+00  0.0000000000000D+00  0.0000000000000D+00
172  1.7100000000000D+00  0.0000000000000D+00  0.0000000000000D+00
173  1.7200000000000D+00  0.0000000000000D+00  0.0000000000000D+00
174  1.7300000000000D+00  0.0000000000000D+00  0.0000000000000D+00
175  1.7400000000000D+00  0.0000000000000D+00  0.0000000000000D+00
176  1.7500000000000D+00  0.0000000000000D+00  0.0000000000000D+00
177  1.7600000000000D+00  0.0000000000000D+00  0.0000000000000D+00
178  1.7700000000000D+00  0.0000000000000D+00  0.0000000000000D+00
179  1.7800000000000D+00  0.0000000000000D+00  0.0000000000000D+00
180  1.7900000000000D+00  0.0000000000000D+00  0.0000000000000D+00
181  1.8000000000000D+00  0.0000000000000D+00  0.0000000000000D+00
182  1.8100000000000D+00  0.0000000000000D+00  0.0000000000000D+00
183  1.8200000000000D+00  0.0000000000000D+00  0.0000000000000D+00
184  1.8300000000000D+00  0.0000000000000D+00  0.0000000000000D+00
185  1.8400000000000D+00  0.0000000000000D+00  0.0000000000000D+00
186  1.8500000000000D+00  0.0000000000000D+00  0.0000000000000D+00
187  1.8600000000000D+00  0.0000000000000D+00  0.0000000000000D+00
188  1.8700000000000D+00  0.0000000000000D+00  0.0000000000000D+00
189  1.8800000000000D+00  0.0000000000000D+00  0.0000000000000D+00
190  1.8900000000000D+00  0.0000000000000D+00  0.0000000000000D+00
191  1.9000000000000D+00  0.0000000000000D+00  0.0000000000000D+00
192  1.9100000000000D+00  0.0000000000000D+00  0.0000000000000D+00
193  1.9200000000000D+00  0.0000000000000D+00  0.0000000000000D+00
194  1.9300000000000D+00  0.0000000000000D+00  0.0000000000000D+00
195  1.9400000000000D+00  0.0000000000000D+00  0.0000000000000D+00
196  1.9500000000000D+00  0.0000000000000D+00  0.0000000000000D+00
197  1.9600000000000D+00  0.0000000000000D+00  0.0000000000000D+00
198  1.9700000000000D+00  0.0000000000000D+00  0.0000000000000D+00
199  1.9800000000000D+00  0.0000000000000D+00  0.0000000000000D+00
200  1.9900000000000D+00  0.0000000000000D+00  0.0000000000000D+00
201  2.0000000000000D+00  0.0000000000000D+00  0.0000000000000D+00
202  2.0100000000000D+00  0.0000000000000D+00  0.0000000000000D+00
203  2.0200000000000D+00  0.0000000000000D+00  0.0000000000000D+00
204  2.0300000000000D+00  0.0000000000000D+00  0.0000000000000D+00
205  2.0400000000000D+00  0.0000000000000D+00  0.0000000000000D+00
206  2.0500000000000D+00  0.0000000000000D+00  0.0000000000000D+00
207  2.0600000000000D+00  0.0000000000000D+00  0.0000000000000D+00
208  2.0700000000000D+00  0.0000000000000D+00  0.0000000000000D+00
209  2.0800000000000D+00  0.0000000000000D+00  0.0000000000000D+00
210  2.0900000000000D+00  0.0000000000000D+00  0.0000000000000D+00
211  2.1000000000000D+00  0.0000000000000D+00  0.0000000000000D+00
212  2.1100000000000D+00  0.0000000000000D+00  0.0000000000000D+00
213  2.1200000000000D+00  0.0000000000000D+00  0.0000000000000D+00
214  2.1300000000000D+00  0.0000000000000D+00  0.0000000000000D+00
215  2.1400000000000D+00  0.0000000000000D+00  0.0000000000000D+00
216  2.1500000000000D+00  0.0000000000000D+00  0.0000000000000D+00
217  2.1600000000000D+00  0.0000000000000D+00  0.0000000000000D+00
218  2.1700000000000D+00  0.0000000000000D+00  0.0000000000000D+00
219  2.1800000000000D+00  0.0000000000000D+00  0.0000000000000D+00
220  2.1900000000000D+00  0.0000000000000D+00  0.0000000000000D+00
221  2.2000000000000D+00  0.0000000000000D+00  0.0000000000000D+00
222  2.2100000000000D+00  0.0000000000000D+00  0.0000000000000D+00
223  2.2200000000000D+00  0.0000000000000D+00  0.0000000000000D+00
224  2.2300000000000D+00  0.0000000000000D+00  0.0000000000000D+00
225  2.2400000000000D+00  0.0000000000000D+00  0.0000000000000D+00
226  2.2500000000000D+00  0.0000000000000D+00  0.0000000000000D+00
227  2.2600000000000D+00  0.0000000000000D+00  0.0000000000000D+00
228  2.2700000000000D+00  0.0000000000000D+00  0.0000000000000D+00
229  2.2800000000000D+00  0.0000000000000D+00  0.0000000000000D+00
230  2.2900000000000D+00  0.0000000000000D+00  0.0000000000000D+00
231  2.3000000000000D+00  0.0000000000000D+00  0.0000000000000D+00
232  2.3100000000000D+00  0.0000000000000D+00  0.0000000000000D+00
233  2.3200000000000D+00  0.0000000000000D+00  0.0000000000000D+00
234  2.3300000000000D+00  0.0000000000000D+00  0.0000000000000D+00
235  2.3400000000000D+00  0.0000000000000D+00  0.0000000000000D+00
236  2.3500000000000D+00  0.0000000000000D+00  0.0000000000000D+00
237  2.3600000000000D+00  0.0000000000000D+00  0.0000000000000D+00
238  2.3700000000000D+00  0.0000000000000D+00  0.0000000000000D+00
239  2.3800000000000D+00  0.0000000000000D+00  0.0000000000000D+00
240  2.3900000000000D+00  0.0000000000000D+00  0.0000000000000D+00
241  2.4000000000000D+00  0.0000000000000D+00  0.0000000000000D+00
242  2.4100000000000D+00  0.0000000000000D+00  0.0000000000000D+00
243  2.4200000000000D+00  0.0000000000000D+00  0.0000000000000D+00
244  2.4300000000000D+00  0.0000000000000D+00  0.0000000000000D+00
245  2.4400000000000D+00  0.0000000000000D+00  0.0000000000000D+00
246  2.4500000000000D+00  0.0000000000000D+00  0.0000000000000D+00
247  2.4600000000000D+00  0.0000000000000D+00  0.0000000000000D+00
248  2.4700000000000D+00  0.0000000000000D+00  0.0000000000000D+00
249  2.4800000000000D+00  0.0000000000000D+00  0.0000000000000D+00
250  2.4900000000000D+00  0.0000000000000D+00  0.0000000000000D+00
251  2.5000000000000D+00  0.0000000000000D+00  0.0000000000000D+00
252  2.5100000000000D+00  0.0000000000000D+00  0.0000000000000D+00
253  2.5200000000000D+00  0.0000000000000D+00  0.0000000000000D+00
254  2.5300000000000D+00  0.0000000000000D+00  0.0000000000000D+00
255  2.5400000000000D+00  0.0000000000000D+00  0.0000000000000D+00
256  2.5500000000000D+00  0.0000000000000D+00  0.0000000000000D+00
257  2.5600000000000D+00  0.0000000000000D+00  0.0000000000000D+00
258  2.5700000000000D+00  0.0000000000000D+00  0.0000000000000D+00
259  2.5800000000000D+00  0.0000000000000D+00  0.0000000000000D+00
260  2.5900000000000D+00  0.0000000000000D+00  0.0000000000000D+00
261  2.6000000000000D+00  0.0000000000000D+00  0.0000000000000D+00
262  2.6100000000000D+00  0.0000000000000D+00  0.0000000000000D+00
263  2.6200000000000D+00  0.0000000000000D+00  0.0000000000000D+00
264  2.6300000000000D+00  0.0000000000000D+00  0.0000000000000D+00
265  2.6400000000000D+00  0.0000000000000D+00  0.0000000000000D+00
266  2.6500000000000D+00  0.0000000000000D+00  0.0000000000000D+00
267  2.6600000000000D+00  0.0000000000000D+00  0.0000000000000D+00
268  2.6700000000000D+00  0.0000000000000D+00  0.0000000000000D+00
269  2.6800000000000D+00  0.0000000000000D+00  0.0000000000000D+00
270  2.6900000000000D+00  0.0000000000000D+00  0.0000000000000D+00
271  2.7000000000000D+00  0.0000000000000D+00  0.0000000000000D+00
272  2.7100000000000D+00  0.0000000000000D+00  0.0000000000000D+00
273  2.7200000000000D+00  0.0000000000000D+00  0.0000000000000D+00
274  2.7300000000000D+00  0.0000000000000D+00  0.0000000000000D+00
275  2.7400000000000D+00  0.0000000000000D+00  0.0000000000000D+00
276  2.7500000000000D+00  0.0000000000000D+00  0.0000000000000D+00
277  2.7600000000000D+00  0.0000000000000D+00  0.0000000000000D+00
278  2.7700000000000D+00  0.0000000000000D+00  0.0000000000000D+00
279  2.7800000000000D+00  0.0000000000000D+00  0.0000000000000D+00
280  2.7900000000000D+00  0.0000000000000D+00  0.0000000000000D+00
281  2.8000000000000D+00  0.0000000000000D+00  0.0000000000000D+00
282  2.8100000000000D+00  0.0000000000000D+00  0.0000000000000D+00
283  2.8200000000000D+00  0.0000000000000D+00  0.0000000000000D+00
284  2.8300000000000D+00  0.0000000000000D+00  0.0000000000000D+00
285  2.8400000000000D+00  0.0000000000000D+00  0.0000000000000D+00
286  2.8500000000000D+00  0.0000000000000D+00  0.0000000000000D+00
287  2.8600000000000D+00  0.0000000000000D+00  0.0000000000000D+00
288  2.8700000000000D+00  0.0000000000000D+00  0.0000000000000D+00
289  2.8800000000000D+00  0.0000000000000D+00  0.0000000000000D+00
290  2.8900000000000D+00  0.0000000000000D+00  0.0000000000000D+00
291  2.9000000000000D+00  0.0000000000000D+00  0.0000000000000D+00
292  2.9100000000000D+00  0.0000000000000D+00  0.0000000000000D+00
293  2.9200000000000D+00  0.0000000000000D+00  0.0000000000000D+00
294  2.9300000000000D+00  0.0000000000000D+00  0.0000000000000D+00
295  2.9400000000000D+00  0.0000000000000D+00  0.0000000000000D+00
296  2.9500000000000D+00  0.0000000000000D+00  0.0000000000000D+00
297  2.9600000000000D+00  0.0000000000000D+00  0.0000000000000D+00
298  2.9700000000000D+00  0.0000000000000D+00  0.0000000000000D+00
299  2.9800000000000D+00  0.0000000000000D+00  0.0000000000000D+00
300  2.9900000000000D+00  0.0000000000000D+00  0.0000000000000D+00
301  3.0000000000000D+00  0.0000000000000D+00  0.0000000000000D+00
302  3.0100000000000D+00  0.0000000000000D+00  0.0000000000000D+00
303  3.0200000000000D+00  0.0000000000000D+00  0.0000000000000D+00
304  3.0300000000000D+00  0.0000000000000D+00  0.0000000000000D+00
305  3.0400000000000D+00  0.0000000000000D+00  0.0000000000000D+00
306  3.0500000000000D+00  0.0000000000000D+00  0.0000000000000D+00
307  3.0600000000000D+00  0.0000000000000D+00  0.0000000000000D+00
308  3.0700000000000D+00  0.0000000000000D+00  0.0000000000000D+00
309  3.0800000000000D+00  0.0000000000000D+00  0.0000000000000D+00
310  3.0900000000000D+00  0.0000000000000D+00  0.0000000000000D+00
311  3.1000000000000D+00  0.0000000000000D+00  0.0000000000000D+00
312  3.1100000000000D+00  0.0000000000000D+00  0.0000000000000D+00
313  3.1200000000000D+00  0.0000000000000D+00  0.0000000000000D+00
314  3.1300000000000D+00  0.0000000000000D+00  0.0000000000000D+00
315  3.1400000000000D+00  0.0000000000000D+00  0.0000000000000D+00
316  3.1500000000000D+00  0.0000000000000D+00  0.0000000000000D+00
317  3.1600000000000D+00  0.0000000000000D+00  0.0000000000000D+00
318  3.1700000000000D+00  0.0000000000000D+00  0.0000000000000D+00
319  3.1800000000000D+00  0.0000000000000D+00  0.0000000000000D+00
320  3.1900000000000D+00  0.0000000000000D+00  0.0000000000000D+00
321  3.2000000000000D+00  0.0000000000000D+00  0.0000000000000D+00
322  3.2100000000000D+00  0.0000000000000D+00  0.0000000000000D+00
323  3.2200000000000D+00  0.0000000000000D+00  0.0000000000000D+00
324  3.2300000000000D+00  0.0000000000000D+00  0.0000000000000D+00
325  3.2400000000000D+00  0.0000000000000D+00  0.0000000000000D+00
326  3.2500000000000D+00  0.0000000000000D+00  0.0000000000000D+00
327  3.2600000000000D+00  0.0000000000000D+00  0.0000000000000D+00
328  3.2700000000000D+00  0.0000000000000D+00  0.0000000000000D+00
329  3.2800000000000D+00  0.0000000000000D+00  0.0000000000000D+00
330  3.2900000000000D+00  0.0000000000000D+00  0.0000000000000D+00
331  3.3000000000000D+00  0.0000000000000D+00  0.0000000000000D+00
332  3.3100000000000D+00  0.0000000000000D+00  0.0000000000000D+00
333  3.3200000000000D+00  0.0000000000000D+00  0.0000000000000D+00
334  3.3300000000000D+00  0.0000000000000D+00  0.0000000000000D+00
335  3.3400000000000D+00  0.0000000000000D+00  0.0000000000000D+00
336  3.3500000000000D+00  0.0000000000000D+00  0.0000000000000D+00
337  3.3600000000000D+00  0.0000000000000D+00  0.0000000000000D+00
338  3.3700000000000D+00  0.0000000000000D+00  0.0000000000000D+00
339  3.3800000000000D+00  0.0000000000000D+00  0.0000000000000D+00
340  3.3900000000000D+00  0.0000000000000D+00  0.0000000000000D+00
341  3.4000000000000D+00  0.0000000000000D+00  0.0000000000000D+00
342  3.4100000000000D+00  0.0000000000000D+00  0.0000000000000D+00
343  3.4200000000000D+00  0.0000000000000D+00  0.0000000000000D+00
344  3.4300000000000D+00  0.0000000000000D+00  0.0000000000000D+00
345  3.4400000000000D+00  0.0000000000000D+00  0.0000000000000D+00
346  3.4500000000000D+00  0.0000000000000D+00  0.0000000000000D+00
347  3.4600000000000D+00  0.0000000000000D+00  0.0000000000000D+00
348  3.4700000000000D+00  0.0000000000000D+00  0.0000000000000D+00
349  3.4800000000000D+00  0.0000000000000D+00  0.0000000000000D+00
350  3.4900000000000D+00  0.0000000000000D+00  0.0000000000000D+00
351  3.5000000000000D+00  0.0000000000000D+00  0.0000000000000D+00
352  3.5100000000000D+00  0.0000000000000D+00  0.0000000000000D+00
353  3.5200000000000D+00  0.0000000000000D+00  0.0000000000000D+00
354  3.5300000000000D+00  0.0000000000000D+00  0.0000000000000D+00
355  3.5400000000000D+00  0.0000000000000D+00  0.0000000000000D+00
356  3.5500000000000D+00  0.0000000000000D+00  0.0000000000000D+00
357  3.5600000000000D+00  0.0000000000000D+00  0.0000000000000D+00
358  3.5700000000000D+00  0.0000000000000D+00  0.0000000000000D+00
359  3.5800000000000D+00  0.0000000000000D+00  0.0000000000000D+00
360  3.5900000000000D+00  0.0000000000000D+00  0.0000000000000D+00
361  3.6000000000000D+00  0.0000000000000D+00  0.0000000000000D+00
362  3.6100000000000D+00  0.0000000000000D+00  0.0000000000000D+00
363  3.6200000000000D+00  0.0000000000000D+00  0.0000000000000D+00
364  3.6300000000000D+00  0.0000000000000D+00  0.0000000000000D+00
365  3.6400000000000D+00  0.0000000000000D+00  0.0000000000000D+00
366  3.6500000000000D+00  0.0000000000000D+00  0.0000000000000D+00
367  3.6600000000000D+00  0.0000000000000D+00  0.0000000000000D+00
368  3.6700000000000D+00  0.0000000000000D+00  0.0000000000000D+00
369  3.6800000000000D+00  0.0000000000000D+00  0.0000000000000D+00
370  3.6900000000000D+00  0.0000000000000D+00  0.0000000000000D+00
371  3.7000000000000D+00  0.0000000000000D+00  0.0000000000000D+00
372  3.7100000000000D+00  0.0000000000000D+00  0.0000000000000D+00
373  3.7200000000000D+00  0.0000000000000D+00  0.0000000000000D+00
374  3.7300000000000D+00  0.0000000000000D+00  0.0000000000000D+00
375  3.7400000000000D+00  0.0000000000000D+00  0.0000000000000D+00
376  3.7500000000000D+00  0.0000000000000D+00  0.0000000000000D+00
377  3.7600000000000D+00  0.0000000000000D+00  0.0000000000000D+00
378  3.7700000000000D+00  0.0000000000000D+00  0.0000000000000D+00
379  3.7800000000000D+00  0.0000000000000D+00  0.0000000000000D+00
380  3.7900000000000D+00  0.0000000000000D+00  0.0000000000000D+00
381  3.8000000000000D+00  0.0000000000000D+00  0.0000000000000D+00
382  3.8100000000000D+00  0.0000000000000D+00  0.0000000000000D+00
383  3.8200000000000D+00  0.0000000000000D+00  0.0000000000000D+00
384  3.8300000000000D+00  0.0000000000000D+00  0.0000000000000D+00
385  3.8400000000000D+00  0.0000000000000D+00  0.0000000000000D+00
386  3.8500000000000D+00  0.0000000000000D+00  0.0000000000000D+00
387  3.8600000000000D+00  0.0000000000000D+00  0.0000000000000D+00
388  3.8700000000000D+00  0.0000000000000D+00  0.0000000000000D+00
389  3.8800000000000D+00  0.0000000000000D+00  0.0000000000000D+00
390  3.8900000000000D+00  0.0000000000000D+00  0.0000000000000D+00
391  3.9000000000000D+00  0.0000000000000D+00  0.0000000000000D+00
392  3.9100000000000D+00  0.0000000000000D+00  0.0000000000000D+00
393  3.9200000000000D+00  0.0000000000000D+00  0.0000000000000D+00
394  3.9300000000000D+00  0.0000000000000D+00  0.0000000000000D+00
395  3.9400000000000D+00  0.0000000000000D+00  0.0000000000000D+00
396  3.9500000000000D+00  0.0000000000000D+00  0.0000000000000D+00
397  3.9600000000000D+00  0.0000000000000D+00  0.0000000000000D+00
398  3.9700000000000D+00  0.0000000000000D+00  0.0000000000000D+00
399  3.9800000000000D+00  0.0000000000000D+00  0.0000000000000D+00
400  3.9900000000000D+00  0.0000000000000D+00  0.0000000000000D+00
401  4.0000000000000D+00  0.0000000000000D+00  0.0000000000000D+00
402  4.0100000000000D+00  0.0000000000000D+00  0.0000000000000D+00
403  4.0200000000000D+00  0.0000000000000D+00  0.0000000000000D+00
404  4.0300000000000D+00  0.0000000000000D+00  0.0000000000000D+00
405  4.0400000000000D+00  0.0000000000000D+00  0.0000000000000D+00
406  4.0500000000000D+00  0.0000000000000D+00  0.0000000000000D+00
407  4.0600000000000D+00  0.0000000000000D+00  0.0000000000000D+00
408  4.0700000000000D+00  0.0000000000000D+00  0.0000000000000D+00
409  4.0800000000000D+00  0.0000000000000D+00  0.0000000000000D+00
410  4.0900000000000D+00  0.0000000000000D+00  0.0000000000000D+00
411  4.1000000000000D+00  0.0000000000000D+00  0.0000000000000D+00
412  4.1100000000000D+00  0.0000000000000D+00  0.0000000000000D+00
413  4.1200000000000D+00  0.0000000000000D+00  0.0000000000000D+00
414  4.1300000000000D+00  0.0000000000000D+00  0.0000000000000D+00
415  4.1400000000000D+00  0.0000000000000D+00  0.0000000000000D+00
416  4.1500000000000D+00  0.0000000000000D+00  0.0000000000000D+00
417  4.1600000000000D+00  0.0000000000000D+00  0.0000000000000D+00
418  4.1700000000000D+00  0.0000000000000D+00  0.0000000000000D+00
419  4.1800000000000D+00  0.0000000000000D+00  0.0000000000000D+00
420  4.1900000000000D+00  0.0000000000000D+00  0.0000000000000D+00
421  4.2000000000000D+00  0.0000000000000D+00  0.0000000000000D+00
422  4.2100000000000D+00  0.0000000000000D+00  0.0000000000000D+00
423  4.2200000000000D+00  0.0000000000000D+00  0.0000000000000D+00
424  4.2300000000000D+00  0.0000000000000D+00  0.0000000000000D+00
425  4.2400000000000D+00  0.0000000000000D+00  0.0000000000000D+00
426  4.2500000000000D+00  0.0000000000000D+00  0.0000000000000D+00
427  4.2600000000000D+00  0.0000000000000D+00  0.0000000000000D+00
428  4.2700000000000D+00  0.0000000000000D+00  0.0000000000000D+00
429  4.2800000000000D+00  0.0000000000000D+00  0.0000000000000D+00
430  4.2900000000000D+00  0.0000000000000D+00  0.0000000000000D+00
431  4.3000000000000D+00  0.0000000000000D+00  0.0000000000000D+00
432  4.3100000000000D+00  0.0000000000000D+00  0.0000000000000D+00
433  4.3200000000000D+00  0.0000000000000D+00  0.0000000000000D+00
434  4.3300000000000D+00  0.0000000000000D+00  0.0000000000000D+00
435  4.3400000000000D+00  0.0000000000000D+00  0.0000000000000D+00
436  4.3500000000000D+00  0.0000000000000D+00  0.0000000000000D+00
437  4.3600000000000D+00  0.0000000000000D+00  0.0000000000000D+00
438  4.3700000000000D+00  0.0000000000000D+00  0.0000000000000D+00
439  4.3800000000000D+00  0.0000000000000D+00  0.0000000000000D+00
440  4.3900000000000D+00  0.0000000000000D+00  0.0000000000000D+00
441  4.4000000000000D+00  0.0000000000000D+00  0.0000000000000D+00
442  4.4100000000000D+00  0.0000000000000D+00  0.0000000000000D+00
443  4.4200000000000D+00  0.0000000000000D+00  0.0000000000000D+00