Sb    ONCVPSP-3.3.0  r_core=   1.30295   1.30295   1.50346
51.0000     23.0000      180506    zatom,zion,pspd
8 -116133   2     4   600     0    pspcod,pspxc,lmax,lloc,mmax,r2well
5.99000000  5.00000000  0.00000000    rchrg fchrg qchrg
2     4     3     0    nproj
3     1           extension_switch
4     4     0    nprojso
0                        -5.3352854890712D-01  9.5237404640226D+00
1  0.0000000000000D+00 -1.2175766173073D-08 -1.4967915795694D-10
2  1.0000000000000D-02  7.7610852544139D-02  8.7556820417544D-02
3  2.0000000000000D-02  1.5444723250404D-01  1.7487331085818D-01
4  3.0000000000000D-02  2.2974522157000D-01  2.6170997720328D-01
5  4.0000000000000D-02  3.0276183218949D-01  3.4782899304303D-01
6  5.0000000000000D-02  3.7278503165005D-01  4.3299502355062D-01
7  6.0000000000000D-02  4.3914324546555D-01  5.1697603748882D-01
8  7.0000000000000D-02  5.0121418109525D-01  5.9954410357234D-01
9  8.0000000000000D-02  5.5843282520125D-01  6.8047616755902D-01
10  9.0000000000000D-02  6.1029848245761D-01  7.5955480662517D-01
11  1.0000000000000D-01  6.5638074110283D-01  8.3656895779227D-01
12  1.1000000000000D-01  6.9632426966731D-01  9.1131461740992D-01
13  1.2000000000000D-01  7.2985237026737D-01  9.8359550895991D-01
14  1.3000000000000D-01  7.5676923616216D-01  1.0532237167234D+00
15  1.4000000000000D-01  7.7696088451915D-01  1.1200202831442D+00
16  1.5000000000000D-01  7.9039475911142D-01  1.1838157680193D+00
17  1.6000000000000D-01  7.9711802154663D-01  1.2444507679506D+00
18  1.7000000000000D-01  7.9725457317352D-01  1.3017763947932D+00
19  1.8000000000000D-01  7.9100087259881D-01  1.3556547121290D+00
20  1.9000000000000D-01  7.7862063536287D-01  1.4059591290800D+00
21  2.0000000000000D-01  7.6043852236920D-01  1.4525747510445D+00
22  2.1000000000000D-01  7.3683294177447D-01  1.4953986871900D+00
23  2.2000000000000D-01  7.0822810488404D-01  1.5343403147658D+00
24  2.3000000000000D-01  6.7508548986942D-01  1.5693215004990D+00
25  2.4000000000000D-01  6.3789487757499D-01  1.6002767795178D+00
26  2.5000000000000D-01  5.9716513111084D-01  1.6271534923888D+00
27  2.6000000000000D-01  5.5341489518787D-01  1.6499118809719D+00
28  2.7000000000000D-01  5.0716339214713D-01  1.6685251438856D+00
29  2.8000000000000D-01  4.5892148933574D-01  1.6829794524256D+00
30  2.9000000000000D-01  4.0918320691033D-01  1.6932739278104D+00
31  3.0000000000000D-01  3.5841782639171D-01  1.6994205806228D+00
32  3.1000000000000D-01  3.0706274849618D-01  1.7014442132926D+00
33  3.2000000000000D-01  2.5551723412523D-01  1.6993822864139D+00
34  3.3000000000000D-01  2.0413714516641D-01  1.6932847496249D+00
35  3.4000000000000D-01  1.5323078223784D-01  1.6832138376951D+00
36  3.5000000000000D-01  1.0305589505155D-01  1.6692438323718D+00
37  3.6000000000000D-01  5.3817918055427D-02  1.6514607904407D+00
38  3.7000000000000D-01  5.6694598603923D-03  1.6299622383545D+00
39  3.8000000000000D-01 -4.1288949890889D-02  1.6048568336937D+00
40  3.9000000000000D-01 -8.7006877647539D-02  1.5762639936328D+00
41  4.0000000000000D-01 -1.3148081336135D-01  1.5443134905220D+00
42  4.1000000000000D-01 -1.7474987864516D-01  1.5091450146393D+00
43  4.2000000000000D-01 -2.1689050914814D-01  1.4709077041436D+00
44  4.3000000000000D-01 -2.5801022602683D-01  1.4297596422610D+00
45  4.4000000000000D-01 -2.9824063078213D-01  1.3858673217686D+00
46  4.5000000000000D-01 -3.3772977471838D-01  1.3394050769088D+00
47  4.6000000000000D-01 -3.7663406851528D-01  1.2905544829706D+00
48  4.7000000000000D-01 -4.1510990858632D-01  1.2395037239164D+00
49  4.8000000000000D-01 -4.5330520478203D-01  1.1864469286147D+00
50  4.9000000000000D-01 -4.9135099839322D-01  1.1315834764569D+00
51  5.0000000000000D-01 -5.2935336019103D-01  1.0751172733939D+00
52  5.1000000000000D-01 -5.6738575534231D-01  1.0172559997182D+00
53  5.2000000000000D-01 -6.0548205547799D-01  9.5821033124114D-01
54  5.3000000000000D-01 -6.4363036802155D-01  8.9819313586568D-01
55  5.4000000000000D-01 -6.8176783925533D-01  8.3741864792878D-01
56  5.5000000000000D-01 -7.1977657075331D-01  7.7610162307924D-01
57  5.6000000000000D-01 -7.5748076891628D-01  7.1445647685981D-01
58  5.7000000000000D-01 -7.9464522488255D-01  6.5269641056863D-01
59  5.8000000000000D-01 -8.3097519727628D-01  5.9103252837940D-01
60  5.9000000000000D-01 -8.6611774367945D-01  5.2967295009148D-01
61  6.0000000000000D-01 -8.9966451869476D-01  4.6882192425515D-01
62  6.1000000000000D-01 -9.3115602769390D-01  4.0867894676241D-01
63  6.2000000000000D-01 -9.6008729606081D-01  3.4943789030464D-01
64  6.3000000000000D-01 -9.8591488492324D-01  2.9128615036431D-01
65  6.4000000000000D-01 -1.0080651559942D+00  2.3440381362395D-01
66  6.5000000000000D-01 -1.0259436613131D+00  1.7896285483225D-01
67  6.6000000000000D-01 -1.0389455085804D+00  1.2512636825910D-01
68  6.7000000000000D-01 -1.0464665299220D+00  7.3047839893590D-02
69  6.8000000000000D-01 -1.0479150619661D+00  2.2870466484092D-02
70  6.9000000000000D-01 -1.0427241283456D+00 -2.5273472611417D-02
71  7.0000000000000D-01 -1.0303638024458D+00 -7.1263185012240D-02
72  7.1000000000000D-01 -1.0103535189348D+00 -1.1498987088237D-01
73  7.2000000000000D-01 -9.8227409739089D-01 -1.5635715940178D-01
74  7.3000000000000D-01 -9.4577924042624D-01 -1.9528147152454D-01
75  7.4000000000000D-01 -9.0060627217881D-01 -2.3169230494577D-01
76  7.5000000000000D-01 -8.4658589095106D-01 -2.6553243781287D-01
77  7.6000000000000D-01 -7.8365072199428D-01 -2.9675804839660D-01
78  7.7000000000000D-01 -7.1184247286994D-01 -3.2533874868015D-01
79  7.8000000000000D-01 -6.3131751422130D-01 -3.5125753062018D-01
80  7.9000000000000D-01 -5.4235073285266D-01 -3.7451062467222D-01
81  8.0000000000000D-01 -4.4533753143296D-01 -3.9510727104694D-01
82  8.1000000000000D-01 -3.4079387925822D-01 -4.1306940505463D-01
83  8.2000000000000D-01 -2.2935435122782D-01 -4.2843125880349D-01
84  8.3000000000000D-01 -1.1176812651009D-01 -4.4123888241602D-01
85  8.4000000000000D-01  1.1107045993268D-02 -4.5154958881403D-01
86  8.5000000000000D-01  1.3831287205606D-01 -4.5943132697979D-01
87  8.6000000000000D-01  2.6880044691799D-01 -4.6496198941520D-01
88  8.7000000000000D-01  4.0144198549738D-01 -4.6822866028121D-01
89  8.8000000000000D-01  5.3504419895128D-01 -4.6932681139264D-01
90  8.9000000000000D-01  6.6836313637525D-01 -4.6835945385807D-01
91  9.0000000000000D-01  8.0012028090149D-01 -4.6543625367985D-01
92  9.1000000000000D-01  9.2901966306764D-01 -4.6067262005616D-01
93  9.2000000000000D-01  1.0537657316523D+00 -4.5418877544630D-01
94  9.3000000000000D-01  1.1730817036990D+00 -4.4610881666699D-01
95  9.4000000000000D-01  1.2857281013354D+00 -4.3655977637555D-01
96  9.5000000000000D-01  1.3905211740037D+00 -4.2567069426057D-01
97  9.6000000000000D-01  1.4863509006479D+00 -4.1357170710295D-01
98  9.7000000000000D-01  1.5721982676611D+00 -4.0039316658910D-01
99  9.8000000000000D-01  1.6471515249426D+00 -3.8626479335576D-01
100  9.9000000000000D-01  1.7104211342235D+00 -3.7131487522759D-01
101  1.0000000000000D+00  1.7613531407778D+00 -3.5566951697903D-01
102  1.0100000000000D+00  1.7994407219872D+00 -3.3945194820671D-01
103  1.0200000000000D+00  1.8243336912822D+00 -3.2278189511369D-01
104  1.0300000000000D+00  1.8358457685657D+00 -3.0577502104333D-01
105  1.0400000000000D+00  1.8339594612620D+00 -2.8854243966464D-01
106  1.0500000000000D+00  1.8188284380177D+00 -2.7119030366755D-01
107  1.0600000000000D+00  1.7907773179807D+00 -2.5381947073430D-01
108  1.0700000000000D+00  1.7502988392053D+00 -2.3652524749113D-01
109  1.0800000000000D+00  1.6980484129442D+00 -2.1939721103470D-01
110  1.0900000000000D+00  1.6348361161499D+00 -2.0251910648259D-01
111  1.1000000000000D+00  1.5616162152103D+00 -1.8596881798801D-01
112  1.1100000000000D+00  1.4794743596544D+00 -1.6981840954364D-01
113  1.1200000000000D+00  1.3896126184160D+00 -1.5413423108024D-01
114  1.1300000000000D+00  1.2933325770204D+00 -1.3897708427506D-01
115  1.1400000000000D+00  1.1920167437706D+00 -1.2440244178882D-01
116  1.1500000000000D+00  1.0871085465187D+00 -1.1046071287223D-01
117  1.1600000000000D+00  9.8009122339472D-01 -9.7197547781367D-02
118  1.1700000000000D+00  8.7246593906839D-01 -8.4654172804255D-02
119  1.1800000000000D+00  7.6572947048316D-01 -7.2867747433684D-02
120  1.1900000000000D+00  6.6135181574951D-01 -6.1871735020284D-02
121  1.2000000000000D+00  5.6075408757341D-01 -5.1696278076303D-02
122  1.2100000000000D+00  4.6528705134157D-01 -4.2368569469246D-02
123  1.2200000000000D+00  3.7621065586568D-01 -3.3913211042593D-02
124  1.2300000000000D+00  2.9467489924799D-01 -2.6352551348030D-02
125  1.2400000000000D+00  2.2170235156536D-01 -1.9706994684297D-02
126  1.2500000000000D+00  1.5817262397797D-01 -1.3995274396543D-02
127  1.2600000000000D+00  1.0482478591598D-01 -9.2360353545322D-03
128  1.2700000000000D+00  6.2183478681478D-02 -5.4426014024757D-03
129  1.2800000000000D+00  3.0434021409276D-02 -2.6141270887425D-03
130  1.2900000000000D+00  1.0652862715593D-02 -8.3353183714404D-04
131  1.3000000000000D+00  2.0500330933917D-03 -5.1848577956656D-05
132  1.3100000000000D+00 -9.6089554330198D-05  7.9660209879455D-05
133  1.3200000000000D+00  3.1427835295990D-05 -8.1424662781513D-06
134  1.3300000000000D+00  7.5777390311791D-05 -1.5667981240730D-05
135  1.3400000000000D+00 -1.2837828442353D-05  3.9882432550294D-06
136  1.3500000000000D+00 -1.1968820231625D-06  3.2676607227350D-07
137  1.3600000000000D+00 -2.6342322077223D-06 -9.4720289501186D-08
138  1.3700000000000D+00  0.0000000000000D+00  0.0000000000000D+00
139  1.3800000000000D+00  0.0000000000000D+00  0.0000000000000D+00
140  1.3900000000000D+00  0.0000000000000D+00  0.0000000000000D+00
141  1.4000000000000D+00  0.0000000000000D+00  0.0000000000000D+00
142  1.4100000000000D+00  0.0000000000000D+00  0.0000000000000D+00
143  1.4200000000000D+00  0.0000000000000D+00  0.0000000000000D+00
144  1.4300000000000D+00  0.0000000000000D+00  0.0000000000000D+00
145  1.4400000000000D+00  0.0000000000000D+00  0.0000000000000D+00
146  1.4500000000000D+00  0.0000000000000D+00  0.0000000000000D+00
147  1.4600000000000D+00  0.0000000000000D+00  0.0000000000000D+00
148  1.4700000000000D+00  0.0000000000000D+00  0.0000000000000D+00
149  1.4800000000000D+00  0.0000000000000D+00  0.0000000000000D+00
150  1.4900000000000D+00  0.0000000000000D+00  0.0000000000000D+00
151  1.5000000000000D+00  0.0000000000000D+00  0.0000000000000D+00
152  1.5100000000000D+00  0.0000000000000D+00  0.0000000000000D+00
153  1.5200000000000D+00  0.0000000000000D+00  0.0000000000000D+00
154  1.5300000000000D+00  0.0000000000000D+00  0.0000000000000D+00
155  1.5400000000000D+00  0.0000000000000D+00  0.0000000000000D+00
156  1.5500000000000D+00  0.0000000000000D+00  0.0000000000000D+00
157  1.5600000000000D+00  0.0000000000000D+00  0.0000000000000D+00
158  1.5700000000000D+00  0.0000000000000D+00  0.0000000000000D+00
159  1.5800000000000D+00  0.0000000000000D+00  0.0000000000000D+00
160  1.5900000000000D+00  0.0000000000000D+00  0.0000000000000D+00
161  1.6000000000000D+00  0.0000000000000D+00  0.0000000000000D+00
162  1.6100000000000D+00  0.0000000000000D+00  0.0000000000000D+00
163  1.6200000000000D+00  0.0000000000000D+00  0.0000000000000D+00
164  1.6300000000000D+00  0.0000000000000D+00  0.0000000000000D+00
165  1.6400000000000D+00  0.0000000000000D+00  0.0000000000000D+00
166  1.6500000000000D+00  0.0000000000000D+00  0.0000000000000D+00
167  1.6600000000000D+00  0.0000000000000D+00  0.0000000000000D+00
168  1.6700000000000D+00  0.0000000000000D+00  0.0000000000000D+00
169  1.6800000000000D+00  0.0000000000000D+00  0.0000000000000D+00
170  1.6900000000000D+00  0.0000000000000D+00  0.0000000000000D+00
171  1.7000000000000D+00  0.0000000000000D+00  0.0000000000000D+00
172  1.7100000000000D+00  0.0000000000000D+00  0.0000000000000D+00
173  1.7200000000000D+00  0.0000000000000D+00  0.0000000000000D+00
174  1.7300000000000D+00  0.0000000000000D+00  0.0000000000000D+00
175  1.7400000000000D+00  0.0000000000000D+00  0.0000000000000D+00
176  1.7500000000000D+00  0.0000000000000D+00  0.0000000000000D+00
177  1.7600000000000D+00  0.0000000000000D+00  0.0000000000000D+00
178  1.7700000000000D+00  0.0000000000000D+00  0.0000000000000D+00
179  1.7800000000000D+00  0.0000000000000D+00  0.0000000000000D+00
180  1.7900000000000D+00  0.0000000000000D+00  0.0000000000000D+00
181  1.8000000000000D+00  0.0000000000000D+00  0.0000000000000D+00
182  1.8100000000000D+00  0.0000000000000D+00  0.0000000000000D+00
183  1.8200000000000D+00  0.0000000000000D+00  0.0000000000000D+00
184  1.8300000000000D+00  0.0000000000000D+00  0.0000000000000D+00
185  1.8400000000000D+00  0.0000000000000D+00  0.0000000000000D+00
186  1.8500000000000D+00  0.0000000000000D+00  0.0000000000000D+00
187  1.8600000000000D+00  0.0000000000000D+00  0.0000000000000D+00
188  1.8700000000000D+00  0.0000000000000D+00  0.0000000000000D+00
189  1.8800000000000D+00  0.0000000000000D+00  0.0000000000000D+00
190  1.8900000000000D+00  0.0000000000000D+00  0.0000000000000D+00
191  1.9000000000000D+00  0.0000000000000D+00  0.0000000000000D+00
192  1.9100000000000D+00  0.0000000000000D+00  0.0000000000000D+00
193  1.9200000000000D+00  0.0000000000000D+00  0.0000000000000D+00
194  1.9300000000000D+00  0.0000000000000D+00  0.0000000000000D+00
195  1.9400000000000D+00  0.0000000000000D+00  0.0000000000000D+00
196  1.9500000000000D+00  0.0000000000000D+00  0.0000000000000D+00
197  1.9600000000000D+00  0.0000000000000D+00  0.0000000000000D+00
198  1.9700000000000D+00  0.0000000000000D+00  0.0000000000000D+00
199  1.9800000000000D+00  0.0000000000000D+00  0.0000000000000D+00
200  1.9900000000000D+00  0.0000000000000D+00  0.0000000000000D+00
201  2.0000000000000D+00  0.0000000000000D+00  0.0000000000000D+00
202  2.0100000000000D+00  0.0000000000000D+00  0.0000000000000D+00
203  2.0200000000000D+00  0.0000000000000D+00  0.0000000000000D+00
204  2.0300000000000D+00  0.0000000000000D+00  0.0000000000000D+00
205  2.0400000000000D+00  0.0000000000000D+00  0.0000000000000D+00
206  2.0500000000000D+00  0.0000000000000D+00  0.0000000000000D+00
207  2.0600000000000D+00  0.0000000000000D+00  0.0000000000000D+00
208  2.0700000000000D+00  0.0000000000000D+00  0.0000000000000D+00
209  2.0800000000000D+00  0.0000000000000D+00  0.0000000000000D+00
210  2.0900000000000D+00  0.0000000000000D+00  0.0000000000000D+00
211  2.1000000000000D+00  0.0000000000000D+00  0.0000000000000D+00
212  2.1100000000000D+00  0.0000000000000D+00  0.0000000000000D+00
213  2.1200000000000D+00  0.0000000000000D+00  0.0000000000000D+00
214  2.1300000000000D+00  0.0000000000000D+00  0.0000000000000D+00
215  2.1400000000000D+00  0.0000000000000D+00  0.0000000000000D+00
216  2.1500000000000D+00  0.0000000000000D+00  0.0000000000000D+00
217  2.1600000000000D+00  0.0000000000000D+00  0.0000000000000D+00
218  2.1700000000000D+00  0.0000000000000D+00  0.0000000000000D+00
219  2.1800000000000D+00  0.0000000000000D+00  0.0000000000000D+00
220  2.1900000000000D+00  0.0000000000000D+00  0.0000000000000D+00
221  2.2000000000000D+00  0.0000000000000D+00  0.0000000000000D+00
222  2.2100000000000D+00  0.0000000000000D+00  0.0000000000000D+00
223  2.2200000000000D+00  0.0000000000000D+00  0.0000000000000D+00
224  2.2300000000000D+00  0.0000000000000D+00  0.0000000000000D+00
225  2.2400000000000D+00  0.0000000000000D+00  0.0000000000000D+00
226  2.2500000000000D+00  0.0000000000000D+00  0.0000000000000D+00
227  2.2600000000000D+00  0.0000000000000D+00  0.0000000000000D+00
228  2.2700000000000D+00  0.0000000000000D+00  0.0000000000000D+00
229  2.2800000000000D+00  0.0000000000000D+00  0.0000000000000D+00
230  2.2900000000000D+00  0.0000000000000D+00  0.0000000000000D+00
231  2.3000000000000D+00  0.0000000000000D+00  0.0000000000000D+00
232  2.3100000000000D+00  0.0000000000000D+00  0.0000000000000D+00
233  2.3200000000000D+00  0.0000000000000D+00  0.0000000000000D+00
234  2.3300000000000D+00  0.0000000000000D+00  0.0000000000000D+00
235  2.3400000000000D+00  0.0000000000000D+00  0.0000000000000D+00
236  2.3500000000000D+00  0.0000000000000D+00  0.0000000000000D+00
237  2.3600000000000D+00  0.0000000000000D+00  0.0000000000000D+00
238  2.3700000000000D+00  0.0000000000000D+00  0.0000000000000D+00
239  2.3800000000000D+00  0.0000000000000D+00  0.0000000000000D+00
240  2.3900000000000D+00  0.0000000000000D+00  0.0000000000000D+00
241  2.4000000000000D+00  0.0000000000000D+00  0.0000000000000D+00
242  2.4100000000000D+00  0.0000000000000D+00  0.0000000000000D+00
243  2.4200000000000D+00  0.0000000000000D+00  0.0000000000000D+00
244  2.4300000000000D+00  0.0000000000000D+00  0.0000000000000D+00
245  2.4400000000000D+00  0.0000000000000D+00  0.0000000000000D+00
246  2.4500000000000D+00  0.0000000000000D+00  0.0000000000000D+00
247  2.4600000000000D+00  0.0000000000000D+00  0.0000000000000D+00
248  2.4700000000000D+00  0.0000000000000D+00  0.0000000000000D+00
249  2.4800000000000D+00  0.0000000000000D+00  0.0000000000000D+00
250  2.4900000000000D+00  0.0000000000000D+00  0.0000000000000D+00
251  2.5000000000000D+00  0.0000000000000D+00  0.0000000000000D+00
252  2.5100000000000D+00  0.0000000000000D+00  0.0000000000000D+00
253  2.5200000000000D+00  0.0000000000000D+00  0.0000000000000D+00
254  2.5300000000000D+00  0.0000000000000D+00  0.0000000000000D+00
255  2.5400000000000D+00  0.0000000000000D+00  0.0000000000000D+00
256  2.5500000000000D+00  0.0000000000000D+00  0.0000000000000D+00
257  2.5600000000000D+00  0.0000000000000D+00  0.0000000000000D+00
258  2.5700000000000D+00  0.0000000000000D+00  0.0000000000000D+00
259  2.5800000000000D+00  0.0000000000000D+00  0.0000000000000D+00
260  2.5900000000000D+00  0.0000000000000D+00  0.0000000000000D+00
261  2.6000000000000D+00  0.0000000000000D+00  0.0000000000000D+00
262  2.6100000000000D+00  0.0000000000000D+00  0.0000000000000D+00
263  2.6200000000000D+00  0.0000000000000D+00  0.0000000000000D+00
264  2.6300000000000D+00  0.0000000000000D+00  0.0000000000000D+00
265  2.6400000000000D+00  0.0000000000000D+00  0.0000000000000D+00
266  2.6500000000000D+00  0.0000000000000D+00  0.0000000000000D+00
267  2.6600000000000D+00  0.0000000000000D+00  0.0000000000000D+00
268  2.6700000000000D+00  0.0000000000000D+00  0.0000000000000D+00
269  2.6800000000000D+00  0.0000000000000D+00  0.0000000000000D+00
270  2.6900000000000D+00  0.0000000000000D+00  0.0000000000000D+00
271  2.7000000000000D+00  0.0000000000000D+00  0.0000000000000D+00
272  2.7100000000000D+00  0.0000000000000D+00  0.0000000000000D+00
273  2.7200000000000D+00  0.0000000000000D+00  0.0000000000000D+00
274  2.7300000000000D+00  0.0000000000000D+00  0.0000000000000D+00
275  2.7400000000000D+00  0.0000000000000D+00  0.0000000000000D+00
276  2.7500000000000D+00  0.0000000000000D+00  0.0000000000000D+00
277  2.7600000000000D+00  0.0000000000000D+00  0.0000000000000D+00
278  2.7700000000000D+00  0.0000000000000D+00  0.0000000000000D+00
279  2.7800000000000D+00  0.0000000000000D+00  0.0000000000000D+00
280  2.7900000000000D+00  0.0000000000000D+00  0.0000000000000D+00
281  2.8000000000000D+00  0.0000000000000D+00  0.0000000000000D+00
282  2.8100000000000D+00  0.0000000000000D+00  0.0000000000000D+00
283  2.8200000000000D+00  0.0000000000000D+00  0.0000000000000D+00
284  2.8300000000000D+00  0.0000000000000D+00  0.0000000000000D+00
285  2.8400000000000D+00  0.0000000000000D+00  0.0000000000000D+00
286  2.8500000000000D+00  0.0000000000000D+00  0.0000000000000D+00
287  2.8600000000000D+00  0.0000000000000D+00  0.0000000000000D+00
288  2.8700000000000D+00  0.0000000000000D+00  0.0000000000000D+00
289  2.8800000000000D+00  0.0000000000000D+00  0.0000000000000D+00
290  2.8900000000000D+00  0.0000000000000D+00  0.0000000000000D+00
291  2.9000000000000D+00  0.0000000000000D+00  0.0000000000000D+00
292  2.9100000000000D+00  0.0000000000000D+00  0.0000000000000D+00
293  2.9200000000000D+00  0.0000000000000D+00  0.0000000000000D+00
294  2.9300000000000D+00  0.0000000000000D+00  0.0000000000000D+00
295  2.9400000000000D+00  0.0000000000000D+00  0.0000000000000D+00
296  2.9500000000000D+00  0.0000000000000D+00  0.0000000000000D+00
297  2.9600000000000D+00  0.0000000000000D+00  0.0000000000000D+00
298  2.9700000000000D+00  0.0000000000000D+00  0.0000000000000D+00
299  2.9800000000000D+00  0.0000000000000D+00  0.0000000000000D+00
300  2.9900000000000D+00  0.0000000000000D+00  0.0000000000000D+00
301  3.0000000000000D+00  0.0000000000000D+00  0.0000000000000D+00
302  3.0100000000000D+00  0.0000000000000D+00  0.0000000000000D+00
303  3.0200000000000D+00  0.0000000000000D+00  0.0000000000000D+00
304  3.0300000000000D+00  0.0000000000000D+00  0.0000000000000D+00
305  3.0400000000000D+00  0.0000000000000D+00  0.0000000000000D+00
306  3.0500000000000D+00  0.0000000000000D+00  0.0000000000000D+00
307  3.0600000000000D+00  0.0000000000000D+00  0.0000000000000D+00
308  3.0700000000000D+00  0.0000000000000D+00  0.0000000000000D+00
309  3.0800000000000D+00  0.0000000000000D+00  0.0000000000000D+00
310  3.0900000000000D+00  0.0000000000000D+00  0.0000000000000D+00
311  3.1000000000000D+00  0.0000000000000D+00  0.0000000000000D+00
312  3.1100000000000D+00  0.0000000000000D+00  0.0000000000000D+00
313  3.1200000000000D+00  0.0000000000000D+00  0.0000000000000D+00
314  3.1300000000000D+00  0.0000000000000D+00  0.0000000000000D+00
315  3.1400000000000D+00  0.0000000000000D+00  0.0000000000000D+00
316  3.1500000000000D+00  0.0000000000000D+00  0.0000000000000D+00
317  3.1600000000000D+00  0.0000000000000D+00  0.0000000000000D+00
318  3.1700000000000D+00  0.0000000000000D+00  0.0000000000000D+00
319  3.1800000000000D+00  0.0000000000000D+00  0.0000000000000D+00
320  3.1900000000000D+00  0.0000000000000D+00  0.0000000000000D+00
321  3.2000000000000D+00  0.0000000000000D+00  0.0000000000000D+00
322  3.2100000000000D+00  0.0000000000000D+00  0.0000000000000D+00
323  3.2200000000000D+00  0.0000000000000D+00  0.0000000000000D+00
324  3.2300000000000D+00  0.0000000000000D+00  0.0000000000000D+00
325  3.2400000000000D+00  0.0000000000000D+00  0.0000000000000D+00
326  3.2500000000000D+00  0.0000000000000D+00  0.0000000000000D+00
327  3.2600000000000D+00  0.0000000000000D+00  0.0000000000000D+00
328  3.2700000000000D+00  0.0000000000000D+00  0.0000000000000D+00
329  3.2800000000000D+00  0.0000000000000D+00  0.0000000000000D+00
330  3.2900000000000D+00  0.0000000000000D+00  0.0000000000000D+00
331  3.3000000000000D+00  0.0000000000000D+00  0.0000000000000D+00
332  3.3100000000000D+00  0.0000000000000D+00  0.0000000000000D+00
333  3.3200000000000D+00  0.0000000000000D+00  0.0000000000000D+00
334  3.3300000000000D+00  0.0000000000000D+00  0.0000000000000D+00
335  3.3400000000000D+00  0.0000000000000D+00  0.0000000000000D+00
336  3.3500000000000D+00  0.0000000000000D+00  0.0000000000000D+00
337  3.3600000000000D+00  0.0000000000000D+00  0.0000000000000D+00
338  3.3700000000000D+00  0.0000000000000D+00  0.0000000000000D+00
339  3.3800000000000D+00  0.0000000000000D+00  0.0000000000000D+00
340  3.3900000000000D+00  0.0000000000000D+00  0.0000000000000D+00
341  3.4000000000000D+00  0.0000000000000D+00  0.0000000000000D+00
342  3.4100000000000D+00  0.0000000000000D+00  0.0000000000000D+00
343  3.4200000000000D+00  0.0000000000000D+00  0.0000000000000D+00
344  3.4300000000000D+00  0.0000000000000D+00  0.0000000000000D+00
345  3.4400000000000D+00  0.0000000000000D+00  0.0000000000000D+00
346  3.4500000000000D+00  0.0000000000000D+00  0.0000000000000D+00
347  3.4600000000000D+00  0.0000000000000D+00  0.0000000000000D+00
348  3.4700000000000D+00  0.0000000000000D+00  0.0000000000000D+00
349  3.4800000000000D+00  0.0000000000000D+00  0.0000000000000D+00
350  3.4900000000000D+00  0.0000000000000D+00  0.0000000000000D+00
351  3.5000000000000D+00  0.0000000000000D+00  0.0000000000000D+00
352  3.5100000000000D+00  0.0000000000000D+00  0.0000000000000D+00
353  3.5200000000000D+00  0.0000000000000D+00  0.0000000000000D+00
354  3.5300000000000D+00  0.0000000000000D+00  0.0000000000000D+00
355  3.5400000000000D+00  0.0000000000000D+00  0.0000000000000D+00
356  3.5500000000000D+00  0.0000000000000D+00  0.0000000000000D+00
357  3.5600000000000D+00  0.0000000000000D+00  0.0000000000000D+00
358  3.5700000000000D+00  0.0000000000000D+00  0.0000000000000D+00
359  3.5800000000000D+00  0.0000000000000D+00  0.0000000000000D+00
360  3.5900000000000D+00  0.0000000000000D+00  0.0000000000000D+00
361  3.6000000000000D+00  0.0000000000000D+00  0.0000000000000D+00
362  3.6100000000000D+00  0.0000000000000D+00  0.0000000000000D+00
363  3.6200000000000D+00  0.0000000000000D+00  0.0000000000000D+00
364  3.6300000000000D+00  0.0000000000000D+00  0.0000000000000D+00
365  3.6400000000000D+00  0.0000000000000D+00  0.0000000000000D+00
366  3.6500000000000D+00  0.0000000000000D+00  0.0000000000000D+00
367  3.6600000000000D+00  0.0000000000000D+00  0.0000000000000D+00
368  3.6700000000000D+00  0.0000000000000D+00  0.0000000000000D+00
369  3.6800000000000D+00  0.0000000000000D+00  0.0000000000000D+00
370  3.6900000000000D+00  0.0000000000000D+00  0.0000000000000D+00
371  3.7000000000000D+00  0.0000000000000D+00  0.0000000000000D+00
372  3.7100000000000D+00  0.0000000000000D+00  0.0000000000000D+00
373  3.7200000000000D+00  0.0000000000000D+00  0.0000000000000D+00
374  3.7300000000000D+00  0.0000000000000D+00  0.0000000000000D+00
375  3.7400000000000D+00  0.0000000000000D+00  0.0000000000000D+00
376  3.7500000000000D+00  0.0000000000000D+00  0.0000000000000D+00
377  3.7600000000000D+00  0.0000000000000D+00  0.0000000000000D+00
378  3.7700000000000D+00  0.0000000000000D+00  0.0000000000000D+00
379  3.7800000000000D+00  0.0000000000000D+00  0.0000000000000D+00
380  3.7900000000000D+00  0.0000000000000D+00  0.0000000000000D+00
381  3.8000000000000D+00  0.0000000000000D+00  0.0000000000000D+00
382  3.8100000000000D+00  0.0000000000000D+00  0.0000000000000D+00
383  3.8200000000000D+00  0.0000000000000D+00  0.0000000000000D+00
384  3.8300000000000D+00  0.0000000000000D+00  0.0000000000000D+00
385  3.8400000000000D+00  0.0000000000000D+00  0.0000000000000D+00
386  3.8500000000000D+00  0.0000000000000D+00  0.0000000000000D+00
387  3.8600000000000D+00  0.0000000000000D+00  0.0000000000000D+00
388  3.8700000000000D+00  0.0000000000000D+00  0.0000000000000D+00
389  3.8800000000000D+00  0.0000000000000D+00  0.0000000000000D+00
390  3.8900000000000D+00  0.0000000000000D+00  0.0000000000000D+00
391  3.9000000000000D+00  0.0000000000000D+00  0.0000000000000D+00
392  3.9100000000000D+00  0.0000000000000D+00  0.0000000000000D+00
393  3.9200000000000D+00  0.0000000000000D+00  0.0000000000000D+00
394  3.9300000000000D+00  0.0000000000000D+00  0.0000000000000D+00
395  3.9400000000000D+00  0.0000000000000D+00  0.0000000000000D+00
396  3.9500000000000D+00  0.0000000000000D+00  0.0000000000000D+00
397  3.9600000000000D+00  0.0000000000000D+00  0.0000000000000D+00
398  3.9700000000000D+00  0.0000000000000D+00  0.0000000000000D+00
399  3.9800000000000D+00  0.0000000000000D+00  0.0000000000000D+00
400  3.9900000000000D+00  0.0000000000000D+00  0.0000000000000D+00
401  4.0000000000000D+00  0.0000000000000D+00  0.0000000000000D+00
402  4.0100000000000D+00  0.0000000000000D+00  0.0000000000000D+00
403  4.0200000000000D+00  0.0000000000000D+00  0.0000000000000D+00
404  4.0300000000000D+00  0.0000000000000D+00  0.0000000000000D+00
405  4.0400000000000D+00  0.0000000000000D+00  0.0000000000000D+00
406  4.0500000000000D+00  0.0000000000000D+00  0.0000000000000D+00
407  4.0600000000000D+00  0.0000000000000D+00  0.0000000000000D+00
408  4.0700000000000D+00  0.0000000000000D+00  0.0000000000000D+00
409  4.0800000000000D+00  0.0000000000000D+00  0.0000000000000D+00
410  4.0900000000000D+00  0.0000000000000D+00  0.0000000000000D+00
411  4.1000000000000D+00  0.0000000000000D+00  0.0000000000000D+00
412  4.1100000000000D+00  0.0000000000000D+00  0.0000000000000D+00
413  4.1200000000000D+00  0.0000000000000D+00  0.0000000000000D+00
414  4.1300000000000D+00  0.0000000000000D+00  0.0000000000000D+00
415  4.1400000000000D+00  0.0000000000000D+00  0.0000000000000D+00
416  4.1500000000000D+00  0.0000000000000D+00  0.0000000000000D+00
417  4.1600000000000D+00  0.0000000000000D+00  0.0000000000000D+00
418  4.1700000000000D+00  0.0000000000000D+00  0.0000000000000D+00
419  4.1800000000000D+00  0.0000000000000D+00  0.0000000000000D+00
420  4.1900000000000D+00  0.0000000000000D+00  0.0000000000000D+00
421  4.2000000000000D+00  0.0000000000000D+00  0.0000000000000D+00
422  4.2100000000000D+00  0.0000000000000D+00  0.0000000000000D+00
423  4.2200000000000D+00  0.0000000000000D+00  0.0000000000000D+00
424  4.2300000000000D+00  0.0000000000000D+00  0.0000000000000D+00
425  4.2400000000000D+00  0.0000000000000D+00  0.0000000000000D+00
426  4.2500000000000D+00  0.0000000000000D+00  0.0000000000000D+00
427  4.2600000000000D+00  0.0000000000000D+00  0.0000000000000D+00
428  4.2700000000000D+00  0.0000000000000D+00  0.0000000000000D+00
429  4.2800000000000D+00  0.0000000000000D+00  0.0000000000000D+00
430  4.2900000000000D+00  0.0000000000000D+00  0.0000000000000D+00
431  4.3000000000000D+00  0.0000000000000D+00  0.0000000000000D+00
432  4.3100000000000D+00  0.0000000000000D+00  0.0000000000000D+00
433  4.3200000000000D+00  0.0000000000000D+00  0.0000000000000D+00
434  4.3300000000000D+00  0.0000000000000D+00  0.0000000000000D+00
435  4.3400000000000D+00  0.0000000000000D+00  0.0000000000000D+00
436  4.3500000000000D+00  0.0000000000000D+00  0.0000000000000D+00
437  4.3600000000000D+00  0.0000000000000D+00  0.0000000000000D+00
438  4.3700000000000D+00  0.0000000000000D+00  0.0000000000000D+00
439  4.3800000000000D+00  0.0000000000000D+00  0.0000000000000D+00
440  4.3900000000000D+00  0.0000000000000D+00  0.0000000000000D+00
441  4.4000000000000D+00  0.0000000000000D+00  0.0000000000000D+00
442  4.4100000000000D+00  0.0000000000000D+00  0.0000000000000D+00
443  4.4200000000000D+00  0.0000000000000D+00  0.0000000000000D+00