Sc    ONCVPSP-3.3.0  r_core=   1.35663   1.35663   1.66161
21.0000     11.0000      180429    zatom,zion,pspd
8 -116133   2     4   600     0    pspcod,pspxc,lmax,lloc,mmax,r2well
5.99000000  5.00000000  0.00000000    rchrg fchrg qchrg
2     3     2     0    nproj
3     1           extension_switch
4     3     0    nprojso
0                         9.4848302640322D-01  1.0811140464119D+01
1  0.0000000000000D+00 -1.6112348150132D-08  3.4603384602150D-09
2  1.0000000000000D-02 -2.3715986216293D-02  7.5347945246964D-02
3  2.0000000000000D-02 -4.7545378533169D-02  1.5058377370300D-01
4  3.0000000000000D-02 -7.1594828509424D-02  2.2559423314986D-01
5  4.0000000000000D-02 -9.5957656568661D-02  3.0026383818725D-01
6  5.0000000000000D-02 -1.2070762702801D-01  3.7447384690571D-01
7  6.0000000000000D-02 -1.4589323997351D-01  4.4810134692711D-01
8  7.0000000000000D-02 -1.7153269278062D-01  5.2101848308500D-01
9  8.0000000000000D-02 -1.9760964796568D-01  5.9309185555609D-01
10  9.0000000000000D-02 -2.2406992463345D-01  6.6418211308315D-01
11  1.0000000000000D-01 -2.5081920851023D-01  7.3414376114499D-01
12  1.1000000000000D-01 -2.7772185094576D-01  8.0282519964250D-01
13  1.2000000000000D-01 -3.0460080090640D-01  8.7006899900654D-01
14  1.3000000000000D-01 -3.3123868648698D-01  9.3571241772398D-01
15  1.4000000000000D-01 -3.5738003448614D-01  9.9958815826399D-01
16  1.5000000000000D-01 -3.8273458878019D-01  1.0615253524070D+00
17  1.6000000000000D-01 -4.0698166124990D-01  1.1213507611759D+00
18  1.7000000000000D-01 -4.2977542350336D-01  1.1788901690801D+00
19  1.8000000000000D-01 -4.5075102420211D-01  1.2339699473378D+00
20  1.9000000000000D-01 -4.6953139599676D-01  1.2864187562605D+00
21  2.0000000000000D-01 -4.8573459841308D-01  1.3360693531742D+00
22  2.1000000000000D-01 -4.9898152892616D-01  1.3827604692093D+00
23  2.2000000000000D-01 -5.0890382426632D-01  1.4263387160783D+00
24  2.3000000000000D-01 -5.1515176797147D-01  1.4666604826544D+00
25  2.4000000000000D-01 -5.1740201849525D-01  1.5035937807747D+00
26  2.5000000000000D-01 -5.1536497485867D-01  1.5370200002515D+00
27  2.6000000000000D-01 -5.0879160385116D-01  1.5668355345663D+00
28  2.7000000000000D-01 -4.9747956399999D-01  1.5929532411145D+00
29  2.8000000000000D-01 -4.8127847669275D-01  1.6153037031154D+00
30  2.9000000000000D-01 -4.6009421361670D-01  1.6338362643267D+00
31  3.0000000000000D-01 -4.3389209165261D-01  1.6485198124216D+00
32  3.1000000000000D-01 -4.0269889102384D-01  1.6593432921834D+00
33  3.2000000000000D-01 -3.6660363929643D-01  1.6663159354387D+00
34  3.3000000000000D-01 -3.2575713212940D-01  1.6694672007467D+00
35  3.4000000000000D-01 -2.8037019083362D-01  1.6688464221465D+00
36  3.5000000000000D-01 -2.3071068613406D-01  1.6645221726035D+00
37  3.6000000000000D-01 -1.7709938635490D-01  1.6565813540270D+00
38  3.7000000000000D-01 -1.1990471588133D-01  1.6451280317224D+00
39  3.8000000000000D-01 -5.9536535544012D-02  1.6302820367443D+00
40  3.9000000000000D-01  3.5609200992720D-03  1.6121773647046D+00
41  4.0000000000000D-01  6.8916793301021D-02  1.5909604040356D+00
42  4.1000000000000D-01  1.3604186940798D-01  1.5667880304132D+00
43  4.2000000000000D-01  2.0443717396052D-01  1.5398256069151D+00
44  4.3000000000000D-01  2.7360270708117D-01  1.5102449314501D+00
45  4.4000000000000D-01  3.4304611751792D-01  1.4782221740087D+00
46  4.5000000000000D-01  4.1229111921738D-01  1.4439358463071D+00
47  4.6000000000000D-01  4.8088545844784D-01  1.4075648454365D+00
48  4.7000000000000D-01  5.4840824918311D-01  1.3692866111983D+00
49  4.8000000000000D-01  6.1447650850159D-01  1.3292754339398D+00
50  4.9000000000000D-01  6.7875074185210D-01  1.2877009459782D+00
51  5.0000000000000D-01  7.4093944979295D-01  1.2447268251821D+00
52  5.1000000000000D-01  8.0080245273790D-01  1.2005097340857D+00
53  5.2000000000000D-01  8.5815295779073D-01  1.1551985121451D+00
54  5.3000000000000D-01  9.1285832128843D-01  1.1089336325551D+00
55  5.4000000000000D-01  9.6483949148952D-01  1.0618469285637D+00
56  5.5000000000000D-01  1.0140691473232D+00  1.0140615875990D+00
57  5.6000000000000D-01  1.0605685803812D+00  9.6569240492883D-01
58  5.7000000000000D-01  1.1044033977812D+00  9.1684628214449D-01
59  5.8000000000000D-01  1.1456781523715D+00  8.6762294966253D-01
60  5.9000000000000D-01  1.1845300332760D+00  8.1811588682140D-01
61  6.0000000000000D-01  1.2211217734254D+00  7.6841340813337D-01
62  6.1000000000000D-01  1.2556339508140D+00  7.1859987998107D-01
63  6.2000000000000D-01  1.2882568763233D+00  6.6875702861556D-01
64  6.3000000000000D-01  1.3191822726334D+00  6.1896529780825D-01
65  6.4000000000000D-01  1.3485949556481D+00  5.6930521301070D-01
66  6.5000000000000D-01  1.3766647318544D+00  5.1985870841163D-01
67  6.6000000000000D-01  1.4035387219160D+00  4.7071037389208D-01
68  6.7000000000000D-01  1.4293343127653D+00  4.2194858053022D-01
69  6.8000000000000D-01  1.4541329273890D+00  3.7366644601441D-01
70  6.9000000000000D-01  1.4779747839065D+00  3.2596260498933D-01
71  7.0000000000000D-01  1.5008547936373D+00  2.7894175392880D-01
72  7.1000000000000D-01  1.5227197221714D+00  2.3271494549840D-01
73  7.2000000000000D-01  1.5434667084301D+00  1.8739961344054D-01
74  7.3000000000000D-01  1.5629432052113D+00  1.4311931560500D-01
75  7.4000000000000D-01  1.5809483712105D+00  1.0000318975830D-01
76  7.5000000000000D-01  1.5972359099141D+00  5.8185124042766D-02
77  7.6000000000000D-01  1.6115183158637D+00  1.7802651254398D-02
78  7.7000000000000D-01  1.6234724541730D+00 -2.1004416658555D-02
79  7.8000000000000D-01  1.6327463660590D+00 -5.8095590561350D-02
80  7.9000000000000D-01  1.6389671619261D+00 -9.3331512740885D-02
81  8.0000000000000D-01  1.6417498351624D+00 -1.2657593643526D-01
82  8.1000000000000D-01  1.6407068049210D+00 -1.5769783540550D-01
83  8.2000000000000D-01  1.6354579753641D+00 -1.8657359838487D-01
84  8.3000000000000D-01  1.6256410826962D+00 -2.1308925994022D-01
85  8.4000000000000D-01  1.6109220902195D+00 -2.3714271705357D-01
86  8.5000000000000D-01  1.5910053859303D+00 -2.5864587964762D-01
87  8.6000000000000D-01  1.5656435370403D+00 -2.7752670337552D-01
88  8.7000000000000D-01  1.5346463613142D+00 -2.9373105428968D-01
89  8.8000000000000D-01  1.4978890862201D+00 -3.0722435748099D-01
90  8.9000000000000D-01  1.4553193833915D+00 -3.1799298540052D-01
91  9.0000000000000D-01  1.4069630875017D+00 -3.2604534627167D-01
92  9.1000000000000D-01  1.3529284349158D+00 -3.3141263868132D-01
93  9.2000000000000D-01  1.2934086878716D+00 -3.3414924498616D-01
94  9.3000000000000D-01  1.2286830438110D+00 -3.3433274344950D-01
95  9.4000000000000D-01  1.1591157661085D+00 -3.3206352687901D-01
96  9.5000000000000D-01  1.0851535110315D+00 -3.2746402379603D-01
97  9.6000000000000D-01  1.0073208654615D+00 -3.2067752665338D-01
98  9.7000000000000D-01  9.2621414974560D-01 -3.1186664012189D-01
99  9.8000000000000D-01  8.4249357983993D-01 -3.0121137094770D-01
100  9.9000000000000D-01  7.5687391926187D-01 -2.8890688862152D-01
101  1.0000000000000D+00  6.7011378836379D-01 -2.7516099396237D-01
102  1.0100000000000D+00  5.8300382927832D-01 -2.6019133925903D-01
103  1.0200000000000D+00  4.9635395333324D-01 -2.4422244963168D-01
104  1.0300000000000D+00  4.1097992106390D-01 -2.2748260019609D-01
105  1.0400000000000D+00  3.2768952313703D-01 -2.1020060742525D-01
106  1.0500000000000D+00  2.4726864254525D-01 -1.9260259560212D-01
107  1.0600000000000D+00  1.7046748551424D-01 -1.7490880068965D-01
108  1.0700000000000D+00  9.7987268254174D-02 -1.5733047379082D-01
109  1.0800000000000D+00  3.0467640780744D-02 -1.4006694502767D-01
110  1.0900000000000D+00 -3.1524884207485D-02 -1.2330290574813D-01
111  1.1000000000000D+00 -8.7507246622668D-02 -1.0720596321083D-01
112  1.1100000000000D+00 -1.3708867149903D-01 -9.1924516719569D-02
113  1.1200000000000D+00 -1.7997782280703D-01 -7.7585997461607D-02
114  1.1300000000000D+00 -2.1598811547230D-01 -6.4295507214264D-02
115  1.1400000000000D+00 -2.4504106163847D-01 -5.2134882642635D-02
116  1.1500000000000D+00 -2.6716756202609D-01 -4.1162204407294D-02
117  1.1600000000000D+00 -2.8250710596050D-01 -3.1411758953753D-02
118  1.1700000000000D+00 -2.9130488308644D-01 -2.2894452374055D-02
119  1.1800000000000D+00 -2.9390685251584D-01 -1.5598666545095D-02
120  1.1900000000000D+00 -2.9075285993242D-01 -9.4915381270234D-03
121  1.2000000000000D+00 -2.8236794128859D-01 -4.5206306762483D-03
122  1.2100000000000D+00 -2.6935199000739D-01 -6.1596191466066D-04
123  1.2200000000000D+00 -2.5236798770393D-01  2.3076567629638D-03
124  1.2300000000000D+00 -2.3212905429247D-01  4.3480234381778D-03
125  1.2400000000000D+00 -2.0938458518922D-01  5.6127489036998D-03
126  1.2500000000000D+00 -1.8490576361045D-01  6.2163217628954D-03
127  1.2600000000000D+00 -1.5947076371330D-01  6.2771031144030D-03
128  1.2700000000000D+00 -1.3384997088639D-01  5.9143206192334D-03
129  1.2800000000000D+00 -1.0879148724133D-01  5.2451203759180D-03
130  1.2900000000000D+00 -8.5007337763891D-02  4.3817635314438D-03
131  1.3000000000000D+00 -6.3160195537915D-02  3.4289372741318D-03
132  1.3100000000000D+00 -4.3856029867877D-02  2.4819478732682D-03
133  1.3200000000000D+00 -2.7627740703378D-02  1.6236198885295D-03
134  1.3300000000000D+00 -1.4826799509607D-02  9.1431553603066D-04
135  1.3400000000000D+00 -5.9917522261442D-03  4.1705911258001D-04
136  1.3500000000000D+00 -1.4635707412488D-03  1.7018562674053D-04
137  1.3600000000000D+00  4.8705257535479D-06  6.6471451062207D-05
138  1.3700000000000D+00  6.1693826758192D-05  9.5212118429336D-06
139  1.3800000000000D+00 -5.6182918714511D-05 -5.4869961514541D-06
140  1.3900000000000D+00  1.1791438146391D-06  2.2100790050311D-07
141  1.4000000000000D+00  7.9773394395612D-06  1.2237163513297D-06
142  1.4100000000000D+00  5.4318645005373D-07 -1.9837860570552D-07
143  1.4200000000000D+00  3.6468174516848D-07 -1.3318641531950D-07
144  1.4300000000000D+00  0.0000000000000D+00  0.0000000000000D+00
145  1.4400000000000D+00  0.0000000000000D+00  0.0000000000000D+00
146  1.4500000000000D+00  0.0000000000000D+00  0.0000000000000D+00
147  1.4600000000000D+00  0.0000000000000D+00  0.0000000000000D+00
148  1.4700000000000D+00  0.0000000000000D+00  0.0000000000000D+00
149  1.4800000000000D+00  0.0000000000000D+00  0.0000000000000D+00
150  1.4900000000000D+00  0.0000000000000D+00  0.0000000000000D+00
151  1.5000000000000D+00  0.0000000000000D+00  0.0000000000000D+00
152  1.5100000000000D+00  0.0000000000000D+00  0.0000000000000D+00
153  1.5200000000000D+00  0.0000000000000D+00  0.0000000000000D+00
154  1.5300000000000D+00  0.0000000000000D+00  0.0000000000000D+00
155  1.5400000000000D+00  0.0000000000000D+00  0.0000000000000D+00
156  1.5500000000000D+00  0.0000000000000D+00  0.0000000000000D+00
157  1.5600000000000D+00  0.0000000000000D+00  0.0000000000000D+00
158  1.5700000000000D+00  0.0000000000000D+00  0.0000000000000D+00
159  1.5800000000000D+00  0.0000000000000D+00  0.0000000000000D+00
160  1.5900000000000D+00  0.0000000000000D+00  0.0000000000000D+00
161  1.6000000000000D+00  0.0000000000000D+00  0.0000000000000D+00
162  1.6100000000000D+00  0.0000000000000D+00  0.0000000000000D+00
163  1.6200000000000D+00  0.0000000000000D+00  0.0000000000000D+00
164  1.6300000000000D+00  0.0000000000000D+00  0.0000000000000D+00
165  1.6400000000000D+00  0.0000000000000D+00  0.0000000000000D+00
166  1.6500000000000D+00  0.0000000000000D+00  0.0000000000000D+00
167  1.6600000000000D+00  0.0000000000000D+00  0.0000000000000D+00
168  1.6700000000000D+00  0.0000000000000D+00  0.0000000000000D+00
169  1.6800000000000D+00  0.0000000000000D+00  0.0000000000000D+00
170  1.6900000000000D+00  0.0000000000000D+00  0.0000000000000D+00
171  1.7000000000000D+00  0.0000000000000D+00  0.0000000000000D+00
172  1.7100000000000D+00  0.0000000000000D+00  0.0000000000000D+00
173  1.7200000000000D+00  0.0000000000000D+00  0.0000000000000D+00
174  1.7300000000000D+00  0.0000000000000D+00  0.0000000000000D+00
175  1.7400000000000D+00  0.0000000000000D+00  0.0000000000000D+00
176  1.7500000000000D+00  0.0000000000000D+00  0.0000000000000D+00
177  1.7600000000000D+00  0.0000000000000D+00  0.0000000000000D+00
178  1.7700000000000D+00  0.0000000000000D+00  0.0000000000000D+00
179  1.7800000000000D+00  0.0000000000000D+00  0.0000000000000D+00
180  1.7900000000000D+00  0.0000000000000D+00  0.0000000000000D+00
181  1.8000000000000D+00  0.0000000000000D+00  0.0000000000000D+00
182  1.8100000000000D+00  0.0000000000000D+00  0.0000000000000D+00
183  1.8200000000000D+00  0.0000000000000D+00  0.0000000000000D+00
184  1.8300000000000D+00  0.0000000000000D+00  0.0000000000000D+00
185  1.8400000000000D+00  0.0000000000000D+00  0.0000000000000D+00
186  1.8500000000000D+00  0.0000000000000D+00  0.0000000000000D+00
187  1.8600000000000D+00  0.0000000000000D+00  0.0000000000000D+00
188  1.8700000000000D+00  0.0000000000000D+00  0.0000000000000D+00
189  1.8800000000000D+00  0.0000000000000D+00  0.0000000000000D+00
190  1.8900000000000D+00  0.0000000000000D+00  0.0000000000000D+00
191  1.9000000000000D+00  0.0000000000000D+00  0.0000000000000D+00
192  1.9100000000000D+00  0.0000000000000D+00  0.0000000000000D+00
193  1.9200000000000D+00  0.0000000000000D+00  0.0000000000000D+00
194  1.9300000000000D+00  0.0000000000000D+00  0.0000000000000D+00
195  1.9400000000000D+00  0.0000000000000D+00  0.0000000000000D+00
196  1.9500000000000D+00  0.0000000000000D+00  0.0000000000000D+00
197  1.9600000000000D+00  0.0000000000000D+00  0.0000000000000D+00
198  1.9700000000000D+00  0.0000000000000D+00  0.0000000000000D+00
199  1.9800000000000D+00  0.0000000000000D+00  0.0000000000000D+00
200  1.9900000000000D+00  0.0000000000000D+00  0.0000000000000D+00
201  2.0000000000000D+00  0.0000000000000D+00  0.0000000000000D+00
202  2.0100000000000D+00  0.0000000000000D+00  0.0000000000000D+00
203  2.0200000000000D+00  0.0000000000000D+00  0.0000000000000D+00
204  2.0300000000000D+00  0.0000000000000D+00  0.0000000000000D+00
205  2.0400000000000D+00  0.0000000000000D+00  0.0000000000000D+00
206  2.0500000000000D+00  0.0000000000000D+00  0.0000000000000D+00
207  2.0600000000000D+00  0.0000000000000D+00  0.0000000000000D+00
208  2.0700000000000D+00  0.0000000000000D+00  0.0000000000000D+00
209  2.0800000000000D+00  0.0000000000000D+00  0.0000000000000D+00
210  2.0900000000000D+00  0.0000000000000D+00  0.0000000000000D+00
211  2.1000000000000D+00  0.0000000000000D+00  0.0000000000000D+00
212  2.1100000000000D+00  0.0000000000000D+00  0.0000000000000D+00
213  2.1200000000000D+00  0.0000000000000D+00  0.0000000000000D+00
214  2.1300000000000D+00  0.0000000000000D+00  0.0000000000000D+00
215  2.1400000000000D+00  0.0000000000000D+00  0.0000000000000D+00
216  2.1500000000000D+00  0.0000000000000D+00  0.0000000000000D+00
217  2.1600000000000D+00  0.0000000000000D+00  0.0000000000000D+00
218  2.1700000000000D+00  0.0000000000000D+00  0.0000000000000D+00
219  2.1800000000000D+00  0.0000000000000D+00  0.0000000000000D+00
220  2.1900000000000D+00  0.0000000000000D+00  0.0000000000000D+00
221  2.2000000000000D+00  0.0000000000000D+00  0.0000000000000D+00
222  2.2100000000000D+00  0.0000000000000D+00  0.0000000000000D+00
223  2.2200000000000D+00  0.0000000000000D+00  0.0000000000000D+00
224  2.2300000000000D+00  0.0000000000000D+00  0.0000000000000D+00
225  2.2400000000000D+00  0.0000000000000D+00  0.0000000000000D+00
226  2.2500000000000D+00  0.0000000000000D+00  0.0000000000000D+00
227  2.2600000000000D+00  0.0000000000000D+00  0.0000000000000D+00
228  2.2700000000000D+00  0.0000000000000D+00  0.0000000000000D+00
229  2.2800000000000D+00  0.0000000000000D+00  0.0000000000000D+00
230  2.2900000000000D+00  0.0000000000000D+00  0.0000000000000D+00
231  2.3000000000000D+00  0.0000000000000D+00  0.0000000000000D+00
232  2.3100000000000D+00  0.0000000000000D+00  0.0000000000000D+00
233  2.3200000000000D+00  0.0000000000000D+00  0.0000000000000D+00
234  2.3300000000000D+00  0.0000000000000D+00  0.0000000000000D+00
235  2.3400000000000D+00  0.0000000000000D+00  0.0000000000000D+00
236  2.3500000000000D+00  0.0000000000000D+00  0.0000000000000D+00
237  2.3600000000000D+00  0.0000000000000D+00  0.0000000000000D+00
238  2.3700000000000D+00  0.0000000000000D+00  0.0000000000000D+00
239  2.3800000000000D+00  0.0000000000000D+00  0.0000000000000D+00
240  2.3900000000000D+00  0.0000000000000D+00  0.0000000000000D+00
241  2.4000000000000D+00  0.0000000000000D+00  0.0000000000000D+00
242  2.4100000000000D+00  0.0000000000000D+00  0.0000000000000D+00
243  2.4200000000000D+00  0.0000000000000D+00  0.0000000000000D+00
244  2.4300000000000D+00  0.0000000000000D+00  0.0000000000000D+00
245  2.4400000000000D+00  0.0000000000000D+00  0.0000000000000D+00
246  2.4500000000000D+00  0.0000000000000D+00  0.0000000000000D+00
247  2.4600000000000D+00  0.0000000000000D+00  0.0000000000000D+00
248  2.4700000000000D+00  0.0000000000000D+00  0.0000000000000D+00
249  2.4800000000000D+00  0.0000000000000D+00  0.0000000000000D+00
250  2.4900000000000D+00  0.0000000000000D+00  0.0000000000000D+00
251  2.5000000000000D+00  0.0000000000000D+00  0.0000000000000D+00
252  2.5100000000000D+00  0.0000000000000D+00  0.0000000000000D+00
253  2.5200000000000D+00  0.0000000000000D+00  0.0000000000000D+00
254  2.5300000000000D+00  0.0000000000000D+00  0.0000000000000D+00
255  2.5400000000000D+00  0.0000000000000D+00  0.0000000000000D+00
256  2.5500000000000D+00  0.0000000000000D+00  0.0000000000000D+00
257  2.5600000000000D+00  0.0000000000000D+00  0.0000000000000D+00
258  2.5700000000000D+00  0.0000000000000D+00  0.0000000000000D+00
259  2.5800000000000D+00  0.0000000000000D+00  0.0000000000000D+00
260  2.5900000000000D+00  0.0000000000000D+00  0.0000000000000D+00
261  2.6000000000000D+00  0.0000000000000D+00  0.0000000000000D+00
262  2.6100000000000D+00  0.0000000000000D+00  0.0000000000000D+00
263  2.6200000000000D+00  0.0000000000000D+00  0.0000000000000D+00
264  2.6300000000000D+00  0.0000000000000D+00  0.0000000000000D+00
265  2.6400000000000D+00  0.0000000000000D+00  0.0000000000000D+00
266  2.6500000000000D+00  0.0000000000000D+00  0.0000000000000D+00
267  2.6600000000000D+00  0.0000000000000D+00  0.0000000000000D+00
268  2.6700000000000D+00  0.0000000000000D+00  0.0000000000000D+00
269  2.6800000000000D+00  0.0000000000000D+00  0.0000000000000D+00
270  2.6900000000000D+00  0.0000000000000D+00  0.0000000000000D+00
271  2.7000000000000D+00  0.0000000000000D+00  0.0000000000000D+00
272  2.7100000000000D+00  0.0000000000000D+00  0.0000000000000D+00
273  2.7200000000000D+00  0.0000000000000D+00  0.0000000000000D+00
274  2.7300000000000D+00  0.0000000000000D+00  0.0000000000000D+00
275  2.7400000000000D+00  0.0000000000000D+00  0.0000000000000D+00
276  2.7500000000000D+00  0.0000000000000D+00  0.0000000000000D+00
277  2.7600000000000D+00  0.0000000000000D+00  0.0000000000000D+00
278  2.7700000000000D+00  0.0000000000000D+00  0.0000000000000D+00
279  2.7800000000000D+00  0.0000000000000D+00  0.0000000000000D+00
280  2.7900000000000D+00  0.0000000000000D+00  0.0000000000000D+00
281  2.8000000000000D+00  0.0000000000000D+00  0.0000000000000D+00
282  2.8100000000000D+00  0.0000000000000D+00  0.0000000000000D+00
283  2.8200000000000D+00  0.0000000000000D+00  0.0000000000000D+00
284  2.8300000000000D+00  0.0000000000000D+00  0.0000000000000D+00
285  2.8400000000000D+00  0.0000000000000D+00  0.0000000000000D+00
286  2.8500000000000D+00  0.0000000000000D+00  0.0000000000000D+00
287  2.8600000000000D+00  0.0000000000000D+00  0.0000000000000D+00
288  2.8700000000000D+00  0.0000000000000D+00  0.0000000000000D+00
289  2.8800000000000D+00  0.0000000000000D+00  0.0000000000000D+00
290  2.8900000000000D+00  0.0000000000000D+00  0.0000000000000D+00
291  2.9000000000000D+00  0.0000000000000D+00  0.0000000000000D+00
292  2.9100000000000D+00  0.0000000000000D+00  0.0000000000000D+00
293  2.9200000000000D+00  0.0000000000000D+00  0.0000000000000D+00
294  2.9300000000000D+00  0.0000000000000D+00  0.0000000000000D+00
295  2.9400000000000D+00  0.0000000000000D+00  0.0000000000000D+00
296  2.9500000000000D+00  0.0000000000000D+00  0.0000000000000D+00
297  2.9600000000000D+00  0.0000000000000D+00  0.0000000000000D+00
298  2.9700000000000D+00  0.0000000000000D+00  0.0000000000000D+00
299  2.9800000000000D+00  0.0000000000000D+00  0.0000000000000D+00
300  2.9900000000000D+00  0.0000000000000D+00  0.0000000000000D+00
301  3.0000000000000D+00  0.0000000000000D+00  0.0000000000000D+00
302  3.0100000000000D+00  0.0000000000000D+00  0.0000000000000D+00
303  3.0200000000000D+00  0.0000000000000D+00  0.0000000000000D+00
304  3.0300000000000D+00  0.0000000000000D+00  0.0000000000000D+00
305  3.0400000000000D+00  0.0000000000000D+00  0.0000000000000D+00
306  3.0500000000000D+00  0.0000000000000D+00  0.0000000000000D+00
307  3.0600000000000D+00  0.0000000000000D+00  0.0000000000000D+00
308  3.0700000000000D+00  0.0000000000000D+00  0.0000000000000D+00
309  3.0800000000000D+00  0.0000000000000D+00  0.0000000000000D+00
310  3.0900000000000D+00  0.0000000000000D+00  0.0000000000000D+00
311  3.1000000000000D+00  0.0000000000000D+00  0.0000000000000D+00
312  3.1100000000000D+00  0.0000000000000D+00  0.0000000000000D+00
313  3.1200000000000D+00  0.0000000000000D+00  0.0000000000000D+00
314  3.1300000000000D+00  0.0000000000000D+00  0.0000000000000D+00
315  3.1400000000000D+00  0.0000000000000D+00  0.0000000000000D+00
316  3.1500000000000D+00  0.0000000000000D+00  0.0000000000000D+00
317  3.1600000000000D+00  0.0000000000000D+00  0.0000000000000D+00
318  3.1700000000000D+00  0.0000000000000D+00  0.0000000000000D+00
319  3.1800000000000D+00  0.0000000000000D+00  0.0000000000000D+00
320  3.1900000000000D+00  0.0000000000000D+00  0.0000000000000D+00
321  3.2000000000000D+00  0.0000000000000D+00  0.0000000000000D+00
322  3.2100000000000D+00  0.0000000000000D+00  0.0000000000000D+00
323  3.2200000000000D+00  0.0000000000000D+00  0.0000000000000D+00
324  3.2300000000000D+00  0.0000000000000D+00  0.0000000000000D+00
325  3.2400000000000D+00  0.0000000000000D+00  0.0000000000000D+00
326  3.2500000000000D+00  0.0000000000000D+00  0.0000000000000D+00
327  3.2600000000000D+00  0.0000000000000D+00  0.0000000000000D+00
328  3.2700000000000D+00  0.0000000000000D+00  0.0000000000000D+00
329  3.2800000000000D+00  0.0000000000000D+00  0.0000000000000D+00
330  3.2900000000000D+00  0.0000000000000D+00  0.0000000000000D+00
331  3.3000000000000D+00  0.0000000000000D+00  0.0000000000000D+00
332  3.3100000000000D+00  0.0000000000000D+00  0.0000000000000D+00
333  3.3200000000000D+00  0.0000000000000D+00  0.0000000000000D+00
334  3.3300000000000D+00  0.0000000000000D+00  0.0000000000000D+00
335  3.3400000000000D+00  0.0000000000000D+00  0.0000000000000D+00
336  3.3500000000000D+00  0.0000000000000D+00  0.0000000000000D+00
337  3.3600000000000D+00  0.0000000000000D+00  0.0000000000000D+00
338  3.3700000000000D+00  0.0000000000000D+00  0.0000000000000D+00
339  3.3800000000000D+00  0.0000000000000D+00  0.0000000000000D+00
340  3.3900000000000D+00  0.0000000000000D+00  0.0000000000000D+00
341  3.4000000000000D+00  0.0000000000000D+00  0.0000000000000D+00
342  3.4100000000000D+00  0.0000000000000D+00  0.0000000000000D+00
343  3.4200000000000D+00  0.0000000000000D+00  0.0000000000000D+00
344  3.4300000000000D+00  0.0000000000000D+00  0.0000000000000D+00
345  3.4400000000000D+00  0.0000000000000D+00  0.0000000000000D+00
346  3.4500000000000D+00  0.0000000000000D+00  0.0000000000000D+00
347  3.4600000000000D+00  0.0000000000000D+00  0.0000000000000D+00
348  3.4700000000000D+00  0.0000000000000D+00  0.0000000000000D+00
349  3.4800000000000D+00  0.0000000000000D+00  0.0000000000000D+00
350  3.4900000000000D+00  0.0000000000000D+00  0.0000000000000D+00
351  3.5000000000000D+00  0.0000000000000D+00  0.0000000000000D+00
352  3.5100000000000D+00  0.0000000000000D+00  0.0000000000000D+00
353  3.5200000000000D+00  0.0000000000000D+00  0.0000000000000D+00
354  3.5300000000000D+00  0.0000000000000D+00  0.0000000000000D+00
355  3.5400000000000D+00  0.0000000000000D+00  0.0000000000000D+00
356  3.5500000000000D+00  0.0000000000000D+00  0.0000000000000D+00
357  3.5600000000000D+00  0.0000000000000D+00  0.0000000000000D+00
358  3.5700000000000D+00  0.0000000000000D+00  0.0000000000000D+00
359  3.5800000000000D+00  0.0000000000000D+00  0.0000000000000D+00
360  3.5900000000000D+00  0.0000000000000D+00  0.0000000000000D+00
361  3.6000000000000D+00  0.0000000000000D+00  0.0000000000000D+00
362  3.6100000000000D+00  0.0000000000000D+00  0.0000000000000D+00
363  3.6200000000000D+00  0.0000000000000D+00  0.0000000000000D+00
364  3.6300000000000D+00  0.0000000000000D+00  0.0000000000000D+00
365  3.6400000000000D+00  0.0000000000000D+00  0.0000000000000D+00
366  3.6500000000000D+00  0.0000000000000D+00  0.0000000000000D+00
367  3.6600000000000D+00  0.0000000000000D+00  0.0000000000000D+00
368  3.6700000000000D+00  0.0000000000000D+00  0.0000000000000D+00
369  3.6800000000000D+00  0.0000000000000D+00  0.0000000000000D+00
370  3.6900000000000D+00  0.0000000000000D+00  0.0000000000000D+00
371  3.7000000000000D+00  0.0000000000000D+00  0.0000000000000D+00
372  3.7100000000000D+00  0.0000000000000D+00  0.0000000000000D+00
373  3.7200000000000D+00  0.0000000000000D+00  0.0000000000000D+00
374  3.7300000000000D+00  0.0000000000000D+00  0.0000000000000D+00
375  3.7400000000000D+00  0.0000000000000D+00  0.0000000000000D+00
376  3.7500000000000D+00  0.0000000000000D+00  0.0000000000000D+00
377  3.7600000000000D+00  0.0000000000000D+00  0.0000000000000D+00
378  3.7700000000000D+00  0.0000000000000D+00  0.0000000000000D+00
379  3.7800000000000D+00  0.0000000000000D+00  0.0000000000000D+00
380  3.7900000000000D+00  0.0000000000000D+00  0.0000000000000D+00
381  3.8000000000000D+00  0.0000000000000D+00  0.0000000000000D+00
382  3.8100000000000D+00  0.0000000000000D+00  0.0000000000000D+00
383  3.8200000000000D+00  0.0000000000000D+00  0.0000000000000D+00
384  3.8300000000000D+00  0.0000000000000D+00  0.0000000000000D+00
385  3.8400000000000D+00  0.0000000000000D+00  0.0000000000000D+00
386  3.8500000000000D+00  0.0000000000000D+00  0.0000000000000D+00
387  3.8600000000000D+00  0.0000000000000D+00  0.0000000000000D+00
388  3.8700000000000D+00  0.0000000000000D+00  0.0000000000000D+00
389  3.8800000000000D+00  0.0000000000000D+00  0.0000000000000D+00
390  3.8900000000000D+00  0.0000000000000D+00  0.0000000000000D+00
391  3.9000000000000D+00  0.0000000000000D+00  0.0000000000000D+00
392  3.9100000000000D+00  0.0000000000000D+00  0.0000000000000D+00
393  3.9200000000000D+00  0.0000000000000D+00  0.0000000000000D+00
394  3.9300000000000D+00  0.0000000000000D+00  0.0000000000000D+00
395  3.9400000000000D+00  0.0000000000000D+00  0.0000000000000D+00
396  3.9500000000000D+00  0.0000000000000D+00  0.0000000000000D+00
397  3.9600000000000D+00  0.0000000000000D+00  0.0000000000000D+00
398  3.9700000000000D+00  0.0000000000000D+00  0.0000000000000D+00
399  3.9800000000000D+00  0.0000000000000D+00  0.0000000000000D+00
400  3.9900000000000D+00  0.0000000000000D+00  0.0000000000000D+00
401  4.0000000000000D+00  0.0000000000000D+00  0.0000000000000D+00
402  4.0100000000000D+00  0.0000000000000D+00  0.0000000000000D+00
403  4.0200000000000D+00  0.0000000000000D+00  0.0000000000000D+00
404  4.0300000000000D+00  0.0000000000000D+00  0.0000000000000D+00
405  4.0400000000000D+00  0.0000000000000D+00  0.0000000000000D+00
406  4.0500000000000D+00  0.0000000000000D+00  0.0000000000000D+00
407  4.0600000000000D+00  0.0000000000000D+00  0.0000000000000D+00
408  4.0700000000000D+00  0.0000000000000D+00  0.0000000000000D+00
409  4.0800000000000D+00  0.0000000000000D+00  0.0000000000000D+00
410  4.0900000000000D+00  0.0000000000000D+00  0.0000000000000D+00
411  4.1000000000000D+00  0.0000000000000D+00  0.0000000000000D+00
412  4.1100000000000D+00  0.0000000000000D+00  0.0000000000000D+00
413  4.1200000000000D+00  0.0000000000000D+00  0.0000000000000D+00
414  4.1300000000000D+00  0.0000000000000D+00  0.0000000000000D+00
415  4.1400000000000D+00  0.0000000000000D+00  0.0000000000000D+00
416  4.1500000000000D+00  0.0000000000000D+00  0.0000000000000D+00
417  4.1600000000000D+00  0.0000000000000D+00  0.0000000000000D+00
418  4.1700000000000D+00  0.0000000000000D+00  0.0000000000000D+00
419  4.1800000000000D+00  0.0000000000000D+00  0.0000000000000D+00
420  4.1900000000000D+00  0.0000000000000D+00  0.0000000000000D+00
421  4.2000000000000D+00  0.0000000000000D+00  0.0000000000000D+00
422  4.2100000000000D+00  0.0000000000000D+00  0.0000000000000D+00
423  4.2200000000000D+00  0.0000000000000D+00  0.0000000000000D+00
424  4.2300000000000D+00  0.0000000000000D+00  0.0000000000000D+00
425  4.2400000000000D+00  0.0000000000000D+00  0.0000000000000D+00
426  4.2500000000000D+00  0.0000000000000D+00  0.0000000000000D+00
427  4.2600000000000D+00  0.0000000000000D+00  0.0000000000000D+00
428  4.2700000000000D+00  0.0000000000000D+00  0.0000000000000D+00
429  4.2800000000000D+00  0.0000000000000D+00  0.0000000000000D+00
430  4.2900000000000D+00  0.0000000000000D+00  0.0000000000000D+00
431  4.3000000000000D+00  0.0000000000000D+00  0.0000000000000D+00
432  4.3100000000000D+00  0.0000000000000D+00  0.0000000000000D+00
433  4.3200000000000D+00  0.0000000000000D+00  0.0000000000000D+00
434  4.3300000000000D+00  0.0000000000000D+00  0.0000000000000D+00
435  4.3400000000000D+00  0.0000000000000D+00  0.0000000000000D+00
436  4.3500000000000D+00  0.0000000000000D+00  0.0000000000000D+00
437  4.3600000000000D+00  0.0000000000000D+00  0.0000000000000D+00
438  4.3700000000000D+00  0.0000000000000D+00  0.0000000000000D+00
439  4.3800000000000D+00  0.0000000000000D+00  0.0000000000000D+00
440  4.3900000000000D+00  0.0000000000000D+00  0.0000000000000D+00
441  4.4000000000000D+00  0.0000000000000D+00  0.0000000000000D+00
442  4.4100000000000D+00  0.0000000000000D+00  0.0000000000000D+00
443  4.4200000000000D+00  0.0000000000000D+00  0.0000000000000D+00