Sn    ONCVPSP-3.3.0  r_core=   1.31325   1.31325   1.51535
50.0000     22.0000      180430    zatom,zion,pspd
8 -116133   2     4   600     0    pspcod,pspxc,lmax,lloc,mmax,r2well
5.99000000  3.50000000  0.00000000    rchrg fchrg qchrg
2     4     3     0    nproj
3     1           extension_switch
4     4     0    nprojso
0                        -6.4129075223792D-01  9.7143015628238D+00
1  0.0000000000000D+00 -1.0448247600436D-08  7.4714678888199D-11
2  1.0000000000000D-02  8.0043773217479D-02  8.4016096189607D-02
3  2.0000000000000D-02  1.5934094874365D-01  1.6782029754567D-01
4  3.0000000000000D-02  2.3715448155194D-01  2.5120128669487D-01
5  4.0000000000000D-02  3.1276627638893D-01  3.3394890068486D-01
6  5.0000000000000D-02  3.8548627650025D-01  4.1585470692633D-01
7  6.0000000000000D-02  4.5466109656057D-01  4.9671257755879D-01
8  7.0000000000000D-02  5.1968206039461D-01  5.7631926162455D-01
9  8.0000000000000D-02  5.7999251452443D-01  6.5447495436137D-01
10  9.0000000000000D-02  6.3509430129190D-01  7.3098386283286D-01
11  1.0000000000000D-01  6.8455329006051D-01  8.0565476701117D-01
12  1.1000000000000D-01  7.2800388153989D-01  8.7830157530835D-01
13  1.2000000000000D-01  7.6515241830875D-01  9.4874387342599D-01
14  1.3000000000000D-01  7.9577945381933D-01  1.0168074652567D+00
15  1.4000000000000D-01  8.1974085221236D-01  1.0823249044316D+00
16  1.5000000000000D-01  8.3696771180002D-01  1.1451360149645D+00
17  1.6000000000000D-01  8.4746512572282D-01  1.2050883993030D+00
18  1.7000000000000D-01  8.5130981368955D-01  1.2620379319584D+00
19  1.8000000000000D-01  8.4864667850058D-01  1.3158492367541D+00
20  1.9000000000000D-01  8.3968435988463D-01  1.3663961456126D+00
21  2.0000000000000D-01  8.2468987570509D-01  1.4135621366908D+00
22  2.1000000000000D-01  8.0398245650080D-01  1.4572407495809D+00
23  2.2000000000000D-01  7.7792669332713D-01  1.4973359752190D+00
24  2.3000000000000D-01  7.4692513069929D-01  1.5337626180884D+00
25  2.4000000000000D-01  7.1141044589251D-01  1.5664466282737D+00
26  2.5000000000000D-01  6.7183736274383D-01  1.5953254009143D+00
27  2.6000000000000D-01  6.2867445229387D-01  1.6203480406267D+00
28  2.7000000000000D-01  5.8239597401763D-01  1.6414755885108D+00
29  2.8000000000000D-01  5.3347390998354D-01  1.6586812094340D+00
30  2.9000000000000D-01  4.8237034006224D-01  1.6719503373918D+00
31  3.0000000000000D-01  4.2953029934256D-01  1.6812807768784D+00
32  3.1000000000000D-01  3.7537524931640D-01  1.6866827583678D+00
33  3.2000000000000D-01  3.2029728232341D-01  1.6881789461996D+00
34  3.3000000000000D-01  2.6465416441020D-01  1.6858043973851D+00
35  3.4000000000000D-01  2.0876530540202D-01  1.6796064700991D+00
36  3.5000000000000D-01  1.5290872689528D-01  1.6696446808969D+00
37  3.6000000000000D-01  9.7319079376611D-02  1.6559905099918D+00
38  3.7000000000000D-01  4.2186739106600D-02  1.6387271542459D+00
39  3.8000000000000D-01 -1.2342005856321D-02  1.6179492278620D+00
40  3.9000000000000D-01 -6.6163692686746D-02  1.5937624111126D+00
41  4.0000000000000D-01 -1.1921537755611D-01  1.5662830478020D+00
42  4.1000000000000D-01 -1.7147134080448D-01  1.5356376925277D+00
43  4.2000000000000D-01 -2.2293887831454D-01  1.5019626091749D+00
44  4.3000000000000D-01 -2.7365327273925D-01  1.4654032224533D+00
45  4.4000000000000D-01 -3.2367205547021D-01  1.4261135246523D+00
46  4.5000000000000D-01 -3.7306868550705D-01  1.3842554401489D+00
47  4.6000000000000D-01 -4.2192578439697D-01  1.3399981505539D+00
48  4.7000000000000D-01 -4.7032807688810D-01  1.2935173837131D+00
49  4.8000000000000D-01 -5.1835519465503D-01  1.2449946700918D+00
50  4.9000000000000D-01 -5.6607450523443D-01  1.1946165703656D+00
51  5.0000000000000D-01 -6.1353413002685D-01  1.1425738782993D+00
52  5.1000000000000D-01 -6.6075631380309D-01  1.0890608032336D+00
53  5.2000000000000D-01 -7.0773130358479D-01  1.0342741366988D+00
54  5.3000000000000D-01 -7.5441188710007D-01  9.7841240784377D-01
55  5.4000000000000D-01 -8.0070873032736D-01  9.2167503249480D-01
56  5.5000000000000D-01 -8.4648664009845D-01  8.6426146075447D-01
57  5.6000000000000D-01 -8.9156186157517D-01  8.0637032809632D-01
58  5.7000000000000D-01 -9.3570050180562D-01  7.4819861492360D-01
59  5.8000000000000D-01 -9.7861814999650D-01  6.8994081952673D-01
60  5.9000000000000D-01 -1.0199807426891D+00  6.3178814929977D-01
61  6.0000000000000D-01 -1.0594066984394D+00  5.7392773496100D-01
62  6.1000000000000D-01 -1.0964703218639D+00  5.1654187236612D-01
63  6.2000000000000D-01 -1.1307064519499D+00  4.5980729630776D-01
64  6.3000000000000D-01 -1.1616163043170D+00  4.0389449046180D-01
65  6.4000000000000D-01 -1.1886744324897D+00  3.4896703737280D-01
66  6.5000000000000D-01 -1.2113367095200D+00  2.9518101207084D-01
67  6.6000000000000D-01 -1.2290492088212D+00  2.4268442258000D-01
68  6.7000000000000D-01 -1.2412578425289D+00  1.9161670022153D-01
69  6.8000000000000D-01 -1.2474185973391D+00  1.4210824223545D-01
70  6.9000000000000D-01 -1.2470081919000D+00  9.4280008841635D-02
71  7.0000000000000D-01 -1.2395349670190D+00  4.8243176447311D-02
72  7.1000000000000D-01 -1.2245498102659D+00  4.0988482798874D-03
73  7.2000000000000D-01 -1.2016569103381D+00 -3.8062176709746D-02
74  7.3000000000000D-01 -1.1705241339665D+00 -7.8159576267636D-02
75  7.4000000000000D-01 -1.1308928193048D+00 -1.1612361861028D-01
76  7.5000000000000D-01 -1.0825867846842D+00 -1.5189521801236D-01
77  7.6000000000000D-01 -1.0255203603416D+00 -1.8542593309163D-01
78  7.7000000000000D-01 -9.5970526313097D-01 -2.1667790908192D-01
79  7.8000000000000D-01 -8.8525615011904D-01 -2.4562376577598D-01
80  7.9000000000000D-01 -8.0239470627430D-01 -2.7224643319092D-01
81  8.0000000000000D-01 -7.1145214365728D-01 -2.9653893735392D-01
82  8.1000000000000D-01 -6.1287001448374D-01 -3.1850413892542D-01
83  8.2000000000000D-01 -5.0719926764679D-01 -3.3815442766525D-01
84  8.3000000000000D-01 -3.9509750734031D-01 -3.5551137600420D-01
85  8.4000000000000D-01 -2.7732444283436D-01 -3.7060535520571D-01
86  8.5000000000000D-01 -1.5473554969579D-01 -3.8347511778867D-01
87  8.6000000000000D-01 -2.8273994285432D-02 -3.9416735003226D-01
88  8.7000000000000D-01  1.0103909535904D-01 -4.0273619849484D-01
89  8.8000000000000D-01  2.3211589868423D-01 -4.0924277455304D-01
90  8.9000000000000D-01  3.6381456916521D-01 -4.1375464100201D-01
91  9.0000000000000D-01  4.9495312838739D-01 -4.1634528475595D-01
92  9.1000000000000D-01  6.2432439305416D-01 -4.1709357964864D-01
93  9.2000000000000D-01  7.5071171843521D-01 -4.1608324325908D-01
94  9.3000000000000D-01  8.7290532322310D-01 -4.1340229157854D-01
95  9.4000000000000D-01  9.8971894592066D-01 -4.0914249519443D-01
96  9.5000000000000D-01  1.1000065720554D+00 -4.0339884049521D-01
97  9.6000000000000D-01  1.2026789650396D+00 -3.9626899920163D-01
98  9.7000000000000D-01  1.2967197312972D+00 -3.8785280930955D-01
99  9.8000000000000D-01  1.3812006528530D+00 -3.7825177027969D-01
100  9.9000000000000D-01  1.4552960276290D+00 -3.6756855504952D-01
101  1.0000000000000D+00  1.5182957693017D+00 -3.5590654116209D-01
102  1.0100000000000D+00  1.5696170345843D+00 -3.4336936301493D-01
103  1.0200000000000D+00  1.6088141658825D+00 -3.3006048693305D-01
104  1.0300000000000D+00  1.6355867623478D+00 -3.1608281045556D-01
105  1.0400000000000D+00  1.6497857175589D+00 -3.0153828694027D-01
106  1.0500000000000D+00  1.6514170959340D+00 -2.8652757625320D-01
107  1.0600000000000D+00  1.6406437512354D+00 -2.7114972202946D-01
108  1.0700000000000D+00  1.6177846265011D+00 -2.5550185569070D-01
109  1.0800000000000D+00  1.5833117135289D+00 -2.3967892710869D-01
110  1.0900000000000D+00  1.5378446834481D+00 -2.2377346156290D-01
111  1.1000000000000D+00  1.4821432432391D+00 -2.0787534234838D-01
112  1.1100000000000D+00  1.4170973078823D+00 -1.9207161817424D-01
113  1.1200000000000D+00  1.3437151160072D+00 -1.7644633426621D-01
114  1.1300000000000D+00  1.2631094506646D+00 -1.6108038589883D-01
115  1.1400000000000D+00  1.1764821592581D+00 -1.4605139290963D-01
116  1.1500000000000D+00  1.0851072000640D+00 -1.3143359358496D-01
117  1.1600000000000D+00  9.9031246656744D-01 -1.1729775620005D-01
118  1.1700000000000D+00  8.9346066272170D-01 -1.0371110640148D-01
119  1.1800000000000D+00  7.9592952295246D-01 -9.0737268538588D-02
120  1.1900000000000D+00  6.9909168511618D-01 -7.8436219008932D-02
121  1.2000000000000D+00  6.0429453031423D-01 -6.6864249682803D-02
122  1.2100000000000D+00  5.1284031010964D-01 -5.6073939455808D-02
123  1.2200000000000D+00  4.2596688135380D-01 -4.6114132024159D-02
124  1.2300000000000D+00  3.4482935742017D-01 -3.7029918051598D-02
125  1.2400000000000D+00  2.7048297814811D-01 -2.8862619948472D-02
126  1.2500000000000D+00  2.0386748596471D-01 -2.1649777584165D-02
127  1.2600000000000D+00  1.4579326405040D-01 -1.5425133425954D-02
128  1.2700000000000D+00  9.6944357154922D-02 -1.0220142276766D-02
129  1.2800000000000D+00  5.7809241726288D-02 -6.0578380728372D-03
130  1.2900000000000D+00  2.8565496351114D-02 -2.9427657202137D-03
131  1.3000000000000D+00  1.0211179393576D-02 -9.6941800808104D-04
132  1.3100000000000D+00  2.1100224046792D-03 -9.0152112372817D-05
133  1.3200000000000D+00 -2.2332370503200D-05  7.8532692396650D-05
134  1.3300000000000D+00  1.7890204018232D-05 -5.8710642458924D-06
135  1.3400000000000D+00  6.9568527391217D-05 -1.7441252414506D-05
136  1.3500000000000D+00 -9.2953743594569D-06  3.7677767144613D-06
137  1.3600000000000D+00 -2.4504794887846D-06  8.4545400578694D-07
138  1.3700000000000D+00 -2.7850827117542D-06 -5.5787006632891D-08
139  1.3800000000000D+00  0.0000000000000D+00  0.0000000000000D+00
140  1.3900000000000D+00  0.0000000000000D+00  0.0000000000000D+00
141  1.4000000000000D+00  0.0000000000000D+00  0.0000000000000D+00
142  1.4100000000000D+00  0.0000000000000D+00  0.0000000000000D+00
143  1.4200000000000D+00  0.0000000000000D+00  0.0000000000000D+00
144  1.4300000000000D+00  0.0000000000000D+00  0.0000000000000D+00
145  1.4400000000000D+00  0.0000000000000D+00  0.0000000000000D+00
146  1.4500000000000D+00  0.0000000000000D+00  0.0000000000000D+00
147  1.4600000000000D+00  0.0000000000000D+00  0.0000000000000D+00
148  1.4700000000000D+00  0.0000000000000D+00  0.0000000000000D+00
149  1.4800000000000D+00  0.0000000000000D+00  0.0000000000000D+00
150  1.4900000000000D+00  0.0000000000000D+00  0.0000000000000D+00
151  1.5000000000000D+00  0.0000000000000D+00  0.0000000000000D+00
152  1.5100000000000D+00  0.0000000000000D+00  0.0000000000000D+00
153  1.5200000000000D+00  0.0000000000000D+00  0.0000000000000D+00
154  1.5300000000000D+00  0.0000000000000D+00  0.0000000000000D+00
155  1.5400000000000D+00  0.0000000000000D+00  0.0000000000000D+00
156  1.5500000000000D+00  0.0000000000000D+00  0.0000000000000D+00
157  1.5600000000000D+00  0.0000000000000D+00  0.0000000000000D+00
158  1.5700000000000D+00  0.0000000000000D+00  0.0000000000000D+00
159  1.5800000000000D+00  0.0000000000000D+00  0.0000000000000D+00
160  1.5900000000000D+00  0.0000000000000D+00  0.0000000000000D+00
161  1.6000000000000D+00  0.0000000000000D+00  0.0000000000000D+00
162  1.6100000000000D+00  0.0000000000000D+00  0.0000000000000D+00
163  1.6200000000000D+00  0.0000000000000D+00  0.0000000000000D+00
164  1.6300000000000D+00  0.0000000000000D+00  0.0000000000000D+00
165  1.6400000000000D+00  0.0000000000000D+00  0.0000000000000D+00
166  1.6500000000000D+00  0.0000000000000D+00  0.0000000000000D+00
167  1.6600000000000D+00  0.0000000000000D+00  0.0000000000000D+00
168  1.6700000000000D+00  0.0000000000000D+00  0.0000000000000D+00
169  1.6800000000000D+00  0.0000000000000D+00  0.0000000000000D+00
170  1.6900000000000D+00  0.0000000000000D+00  0.0000000000000D+00
171  1.7000000000000D+00  0.0000000000000D+00  0.0000000000000D+00
172  1.7100000000000D+00  0.0000000000000D+00  0.0000000000000D+00
173  1.7200000000000D+00  0.0000000000000D+00  0.0000000000000D+00
174  1.7300000000000D+00  0.0000000000000D+00  0.0000000000000D+00
175  1.7400000000000D+00  0.0000000000000D+00  0.0000000000000D+00
176  1.7500000000000D+00  0.0000000000000D+00  0.0000000000000D+00
177  1.7600000000000D+00  0.0000000000000D+00  0.0000000000000D+00
178  1.7700000000000D+00  0.0000000000000D+00  0.0000000000000D+00
179  1.7800000000000D+00  0.0000000000000D+00  0.0000000000000D+00
180  1.7900000000000D+00  0.0000000000000D+00  0.0000000000000D+00
181  1.8000000000000D+00  0.0000000000000D+00  0.0000000000000D+00
182  1.8100000000000D+00  0.0000000000000D+00  0.0000000000000D+00
183  1.8200000000000D+00  0.0000000000000D+00  0.0000000000000D+00
184  1.8300000000000D+00  0.0000000000000D+00  0.0000000000000D+00
185  1.8400000000000D+00  0.0000000000000D+00  0.0000000000000D+00
186  1.8500000000000D+00  0.0000000000000D+00  0.0000000000000D+00
187  1.8600000000000D+00  0.0000000000000D+00  0.0000000000000D+00
188  1.8700000000000D+00  0.0000000000000D+00  0.0000000000000D+00
189  1.8800000000000D+00  0.0000000000000D+00  0.0000000000000D+00
190  1.8900000000000D+00  0.0000000000000D+00  0.0000000000000D+00
191  1.9000000000000D+00  0.0000000000000D+00  0.0000000000000D+00
192  1.9100000000000D+00  0.0000000000000D+00  0.0000000000000D+00
193  1.9200000000000D+00  0.0000000000000D+00  0.0000000000000D+00
194  1.9300000000000D+00  0.0000000000000D+00  0.0000000000000D+00
195  1.9400000000000D+00  0.0000000000000D+00  0.0000000000000D+00
196  1.9500000000000D+00  0.0000000000000D+00  0.0000000000000D+00
197  1.9600000000000D+00  0.0000000000000D+00  0.0000000000000D+00
198  1.9700000000000D+00  0.0000000000000D+00  0.0000000000000D+00
199  1.9800000000000D+00  0.0000000000000D+00  0.0000000000000D+00
200  1.9900000000000D+00  0.0000000000000D+00  0.0000000000000D+00
201  2.0000000000000D+00  0.0000000000000D+00  0.0000000000000D+00
202  2.0100000000000D+00  0.0000000000000D+00  0.0000000000000D+00
203  2.0200000000000D+00  0.0000000000000D+00  0.0000000000000D+00
204  2.0300000000000D+00  0.0000000000000D+00  0.0000000000000D+00
205  2.0400000000000D+00  0.0000000000000D+00  0.0000000000000D+00
206  2.0500000000000D+00  0.0000000000000D+00  0.0000000000000D+00
207  2.0600000000000D+00  0.0000000000000D+00  0.0000000000000D+00
208  2.0700000000000D+00  0.0000000000000D+00  0.0000000000000D+00
209  2.0800000000000D+00  0.0000000000000D+00  0.0000000000000D+00
210  2.0900000000000D+00  0.0000000000000D+00  0.0000000000000D+00
211  2.1000000000000D+00  0.0000000000000D+00  0.0000000000000D+00
212  2.1100000000000D+00  0.0000000000000D+00  0.0000000000000D+00
213  2.1200000000000D+00  0.0000000000000D+00  0.0000000000000D+00
214  2.1300000000000D+00  0.0000000000000D+00  0.0000000000000D+00
215  2.1400000000000D+00  0.0000000000000D+00  0.0000000000000D+00
216  2.1500000000000D+00  0.0000000000000D+00  0.0000000000000D+00
217  2.1600000000000D+00  0.0000000000000D+00  0.0000000000000D+00
218  2.1700000000000D+00  0.0000000000000D+00  0.0000000000000D+00
219  2.1800000000000D+00  0.0000000000000D+00  0.0000000000000D+00
220  2.1900000000000D+00  0.0000000000000D+00  0.0000000000000D+00
221  2.2000000000000D+00  0.0000000000000D+00  0.0000000000000D+00
222  2.2100000000000D+00  0.0000000000000D+00  0.0000000000000D+00
223  2.2200000000000D+00  0.0000000000000D+00  0.0000000000000D+00
224  2.2300000000000D+00  0.0000000000000D+00  0.0000000000000D+00
225  2.2400000000000D+00  0.0000000000000D+00  0.0000000000000D+00
226  2.2500000000000D+00  0.0000000000000D+00  0.0000000000000D+00
227  2.2600000000000D+00  0.0000000000000D+00  0.0000000000000D+00
228  2.2700000000000D+00  0.0000000000000D+00  0.0000000000000D+00
229  2.2800000000000D+00  0.0000000000000D+00  0.0000000000000D+00
230  2.2900000000000D+00  0.0000000000000D+00  0.0000000000000D+00
231  2.3000000000000D+00  0.0000000000000D+00  0.0000000000000D+00
232  2.3100000000000D+00  0.0000000000000D+00  0.0000000000000D+00
233  2.3200000000000D+00  0.0000000000000D+00  0.0000000000000D+00
234  2.3300000000000D+00  0.0000000000000D+00  0.0000000000000D+00
235  2.3400000000000D+00  0.0000000000000D+00  0.0000000000000D+00
236  2.3500000000000D+00  0.0000000000000D+00  0.0000000000000D+00
237  2.3600000000000D+00  0.0000000000000D+00  0.0000000000000D+00
238  2.3700000000000D+00  0.0000000000000D+00  0.0000000000000D+00
239  2.3800000000000D+00  0.0000000000000D+00  0.0000000000000D+00
240  2.3900000000000D+00  0.0000000000000D+00  0.0000000000000D+00
241  2.4000000000000D+00  0.0000000000000D+00  0.0000000000000D+00
242  2.4100000000000D+00  0.0000000000000D+00  0.0000000000000D+00
243  2.4200000000000D+00  0.0000000000000D+00  0.0000000000000D+00
244  2.4300000000000D+00  0.0000000000000D+00  0.0000000000000D+00
245  2.4400000000000D+00  0.0000000000000D+00  0.0000000000000D+00
246  2.4500000000000D+00  0.0000000000000D+00  0.0000000000000D+00
247  2.4600000000000D+00  0.0000000000000D+00  0.0000000000000D+00
248  2.4700000000000D+00  0.0000000000000D+00  0.0000000000000D+00
249  2.4800000000000D+00  0.0000000000000D+00  0.0000000000000D+00
250  2.4900000000000D+00  0.0000000000000D+00  0.0000000000000D+00
251  2.5000000000000D+00  0.0000000000000D+00  0.0000000000000D+00
252  2.5100000000000D+00  0.0000000000000D+00  0.0000000000000D+00
253  2.5200000000000D+00  0.0000000000000D+00  0.0000000000000D+00
254  2.5300000000000D+00  0.0000000000000D+00  0.0000000000000D+00
255  2.5400000000000D+00  0.0000000000000D+00  0.0000000000000D+00
256  2.5500000000000D+00  0.0000000000000D+00  0.0000000000000D+00
257  2.5600000000000D+00  0.0000000000000D+00  0.0000000000000D+00
258  2.5700000000000D+00  0.0000000000000D+00  0.0000000000000D+00
259  2.5800000000000D+00  0.0000000000000D+00  0.0000000000000D+00
260  2.5900000000000D+00  0.0000000000000D+00  0.0000000000000D+00
261  2.6000000000000D+00  0.0000000000000D+00  0.0000000000000D+00
262  2.6100000000000D+00  0.0000000000000D+00  0.0000000000000D+00
263  2.6200000000000D+00  0.0000000000000D+00  0.0000000000000D+00
264  2.6300000000000D+00  0.0000000000000D+00  0.0000000000000D+00
265  2.6400000000000D+00  0.0000000000000D+00  0.0000000000000D+00
266  2.6500000000000D+00  0.0000000000000D+00  0.0000000000000D+00
267  2.6600000000000D+00  0.0000000000000D+00  0.0000000000000D+00
268  2.6700000000000D+00  0.0000000000000D+00  0.0000000000000D+00
269  2.6800000000000D+00  0.0000000000000D+00  0.0000000000000D+00
270  2.6900000000000D+00  0.0000000000000D+00  0.0000000000000D+00
271  2.7000000000000D+00  0.0000000000000D+00  0.0000000000000D+00
272  2.7100000000000D+00  0.0000000000000D+00  0.0000000000000D+00
273  2.7200000000000D+00  0.0000000000000D+00  0.0000000000000D+00
274  2.7300000000000D+00  0.0000000000000D+00  0.0000000000000D+00
275  2.7400000000000D+00  0.0000000000000D+00  0.0000000000000D+00
276  2.7500000000000D+00  0.0000000000000D+00  0.0000000000000D+00
277  2.7600000000000D+00  0.0000000000000D+00  0.0000000000000D+00
278  2.7700000000000D+00  0.0000000000000D+00  0.0000000000000D+00
279  2.7800000000000D+00  0.0000000000000D+00  0.0000000000000D+00
280  2.7900000000000D+00  0.0000000000000D+00  0.0000000000000D+00
281  2.8000000000000D+00  0.0000000000000D+00  0.0000000000000D+00
282  2.8100000000000D+00  0.0000000000000D+00  0.0000000000000D+00
283  2.8200000000000D+00  0.0000000000000D+00  0.0000000000000D+00
284  2.8300000000000D+00  0.0000000000000D+00  0.0000000000000D+00
285  2.8400000000000D+00  0.0000000000000D+00  0.0000000000000D+00
286  2.8500000000000D+00  0.0000000000000D+00  0.0000000000000D+00
287  2.8600000000000D+00  0.0000000000000D+00  0.0000000000000D+00
288  2.8700000000000D+00  0.0000000000000D+00  0.0000000000000D+00
289  2.8800000000000D+00  0.0000000000000D+00  0.0000000000000D+00
290  2.8900000000000D+00  0.0000000000000D+00  0.0000000000000D+00
291  2.9000000000000D+00  0.0000000000000D+00  0.0000000000000D+00
292  2.9100000000000D+00  0.0000000000000D+00  0.0000000000000D+00
293  2.9200000000000D+00  0.0000000000000D+00  0.0000000000000D+00
294  2.9300000000000D+00  0.0000000000000D+00  0.0000000000000D+00
295  2.9400000000000D+00  0.0000000000000D+00  0.0000000000000D+00
296  2.9500000000000D+00  0.0000000000000D+00  0.0000000000000D+00
297  2.9600000000000D+00  0.0000000000000D+00  0.0000000000000D+00
298  2.9700000000000D+00  0.0000000000000D+00  0.0000000000000D+00
299  2.9800000000000D+00  0.0000000000000D+00  0.0000000000000D+00
300  2.9900000000000D+00  0.0000000000000D+00  0.0000000000000D+00
301  3.0000000000000D+00  0.0000000000000D+00  0.0000000000000D+00
302  3.0100000000000D+00  0.0000000000000D+00  0.0000000000000D+00
303  3.0200000000000D+00  0.0000000000000D+00  0.0000000000000D+00
304  3.0300000000000D+00  0.0000000000000D+00  0.0000000000000D+00
305  3.0400000000000D+00  0.0000000000000D+00  0.0000000000000D+00
306  3.0500000000000D+00  0.0000000000000D+00  0.0000000000000D+00
307  3.0600000000000D+00  0.0000000000000D+00  0.0000000000000D+00
308  3.0700000000000D+00  0.0000000000000D+00  0.0000000000000D+00
309  3.0800000000000D+00  0.0000000000000D+00  0.0000000000000D+00
310  3.0900000000000D+00  0.0000000000000D+00  0.0000000000000D+00
311  3.1000000000000D+00  0.0000000000000D+00  0.0000000000000D+00
312  3.1100000000000D+00  0.0000000000000D+00  0.0000000000000D+00
313  3.1200000000000D+00  0.0000000000000D+00  0.0000000000000D+00
314  3.1300000000000D+00  0.0000000000000D+00  0.0000000000000D+00
315  3.1400000000000D+00  0.0000000000000D+00  0.0000000000000D+00
316  3.1500000000000D+00  0.0000000000000D+00  0.0000000000000D+00
317  3.1600000000000D+00  0.0000000000000D+00  0.0000000000000D+00
318  3.1700000000000D+00  0.0000000000000D+00  0.0000000000000D+00
319  3.1800000000000D+00  0.0000000000000D+00  0.0000000000000D+00
320  3.1900000000000D+00  0.0000000000000D+00  0.0000000000000D+00
321  3.2000000000000D+00  0.0000000000000D+00  0.0000000000000D+00
322  3.2100000000000D+00  0.0000000000000D+00  0.0000000000000D+00
323  3.2200000000000D+00  0.0000000000000D+00  0.0000000000000D+00
324  3.2300000000000D+00  0.0000000000000D+00  0.0000000000000D+00
325  3.2400000000000D+00  0.0000000000000D+00  0.0000000000000D+00
326  3.2500000000000D+00  0.0000000000000D+00  0.0000000000000D+00
327  3.2600000000000D+00  0.0000000000000D+00  0.0000000000000D+00
328  3.2700000000000D+00  0.0000000000000D+00  0.0000000000000D+00
329  3.2800000000000D+00  0.0000000000000D+00  0.0000000000000D+00
330  3.2900000000000D+00  0.0000000000000D+00  0.0000000000000D+00
331  3.3000000000000D+00  0.0000000000000D+00  0.0000000000000D+00
332  3.3100000000000D+00  0.0000000000000D+00  0.0000000000000D+00
333  3.3200000000000D+00  0.0000000000000D+00  0.0000000000000D+00
334  3.3300000000000D+00  0.0000000000000D+00  0.0000000000000D+00
335  3.3400000000000D+00  0.0000000000000D+00  0.0000000000000D+00
336  3.3500000000000D+00  0.0000000000000D+00  0.0000000000000D+00
337  3.3600000000000D+00  0.0000000000000D+00  0.0000000000000D+00
338  3.3700000000000D+00  0.0000000000000D+00  0.0000000000000D+00
339  3.3800000000000D+00  0.0000000000000D+00  0.0000000000000D+00
340  3.3900000000000D+00  0.0000000000000D+00  0.0000000000000D+00
341  3.4000000000000D+00  0.0000000000000D+00  0.0000000000000D+00
342  3.4100000000000D+00  0.0000000000000D+00  0.0000000000000D+00
343  3.4200000000000D+00  0.0000000000000D+00  0.0000000000000D+00
344  3.4300000000000D+00  0.0000000000000D+00  0.0000000000000D+00
345  3.4400000000000D+00  0.0000000000000D+00  0.0000000000000D+00
346  3.4500000000000D+00  0.0000000000000D+00  0.0000000000000D+00
347  3.4600000000000D+00  0.0000000000000D+00  0.0000000000000D+00
348  3.4700000000000D+00  0.0000000000000D+00  0.0000000000000D+00
349  3.4800000000000D+00  0.0000000000000D+00  0.0000000000000D+00
350  3.4900000000000D+00  0.0000000000000D+00  0.0000000000000D+00
351  3.5000000000000D+00  0.0000000000000D+00  0.0000000000000D+00
352  3.5100000000000D+00  0.0000000000000D+00  0.0000000000000D+00
353  3.5200000000000D+00  0.0000000000000D+00  0.0000000000000D+00
354  3.5300000000000D+00  0.0000000000000D+00  0.0000000000000D+00
355  3.5400000000000D+00  0.0000000000000D+00  0.0000000000000D+00
356  3.5500000000000D+00  0.0000000000000D+00  0.0000000000000D+00
357  3.5600000000000D+00  0.0000000000000D+00  0.0000000000000D+00
358  3.5700000000000D+00  0.0000000000000D+00  0.0000000000000D+00
359  3.5800000000000D+00  0.0000000000000D+00  0.0000000000000D+00
360  3.5900000000000D+00  0.0000000000000D+00  0.0000000000000D+00
361  3.6000000000000D+00  0.0000000000000D+00  0.0000000000000D+00
362  3.6100000000000D+00  0.0000000000000D+00  0.0000000000000D+00
363  3.6200000000000D+00  0.0000000000000D+00  0.0000000000000D+00
364  3.6300000000000D+00  0.0000000000000D+00  0.0000000000000D+00
365  3.6400000000000D+00  0.0000000000000D+00  0.0000000000000D+00
366  3.6500000000000D+00  0.0000000000000D+00  0.0000000000000D+00
367  3.6600000000000D+00  0.0000000000000D+00  0.0000000000000D+00
368  3.6700000000000D+00  0.0000000000000D+00  0.0000000000000D+00
369  3.6800000000000D+00  0.0000000000000D+00  0.0000000000000D+00
370  3.6900000000000D+00  0.0000000000000D+00  0.0000000000000D+00
371  3.7000000000000D+00  0.0000000000000D+00  0.0000000000000D+00
372  3.7100000000000D+00  0.0000000000000D+00  0.0000000000000D+00
373  3.7200000000000D+00  0.0000000000000D+00  0.0000000000000D+00
374  3.7300000000000D+00  0.0000000000000D+00  0.0000000000000D+00
375  3.7400000000000D+00  0.0000000000000D+00  0.0000000000000D+00
376  3.7500000000000D+00  0.0000000000000D+00  0.0000000000000D+00
377  3.7600000000000D+00  0.0000000000000D+00  0.0000000000000D+00
378  3.7700000000000D+00  0.0000000000000D+00  0.0000000000000D+00
379  3.7800000000000D+00  0.0000000000000D+00  0.0000000000000D+00
380  3.7900000000000D+00  0.0000000000000D+00  0.0000000000000D+00
381  3.8000000000000D+00  0.0000000000000D+00  0.0000000000000D+00
382  3.8100000000000D+00  0.0000000000000D+00  0.0000000000000D+00
383  3.8200000000000D+00  0.0000000000000D+00  0.0000000000000D+00
384  3.8300000000000D+00  0.0000000000000D+00  0.0000000000000D+00
385  3.8400000000000D+00  0.0000000000000D+00  0.0000000000000D+00
386  3.8500000000000D+00  0.0000000000000D+00  0.0000000000000D+00
387  3.8600000000000D+00  0.0000000000000D+00  0.0000000000000D+00
388  3.8700000000000D+00  0.0000000000000D+00  0.0000000000000D+00
389  3.8800000000000D+00  0.0000000000000D+00  0.0000000000000D+00
390  3.8900000000000D+00  0.0000000000000D+00  0.0000000000000D+00
391  3.9000000000000D+00  0.0000000000000D+00  0.0000000000000D+00
392  3.9100000000000D+00  0.0000000000000D+00  0.0000000000000D+00
393  3.9200000000000D+00  0.0000000000000D+00  0.0000000000000D+00
394  3.9300000000000D+00  0.0000000000000D+00  0.0000000000000D+00
395  3.9400000000000D+00  0.0000000000000D+00  0.0000000000000D+00
396  3.9500000000000D+00  0.0000000000000D+00  0.0000000000000D+00
397  3.9600000000000D+00  0.0000000000000D+00  0.0000000000000D+00
398  3.9700000000000D+00  0.0000000000000D+00  0.0000000000000D+00
399  3.9800000000000D+00  0.0000000000000D+00  0.0000000000000D+00
400  3.9900000000000D+00  0.0000000000000D+00  0.0000000000000D+00
401  4.0000000000000D+00  0.0000000000000D+00  0.0000000000000D+00
402  4.0100000000000D+00  0.0000000000000D+00  0.0000000000000D+00
403  4.0200000000000D+00  0.0000000000000D+00  0.0000000000000D+00
404  4.0300000000000D+00  0.0000000000000D+00  0.0000000000000D+00
405  4.0400000000000D+00  0.0000000000000D+00  0.0000000000000D+00
406  4.0500000000000D+00  0.0000000000000D+00  0.0000000000000D+00
407  4.0600000000000D+00  0.0000000000000D+00  0.0000000000000D+00
408  4.0700000000000D+00  0.0000000000000D+00  0.0000000000000D+00
409  4.0800000000000D+00  0.0000000000000D+00  0.0000000000000D+00
410  4.0900000000000D+00  0.0000000000000D+00  0.0000000000000D+00
411  4.1000000000000D+00  0.0000000000000D+00  0.0000000000000D+00
412  4.1100000000000D+00  0.0000000000000D+00  0.0000000000000D+00
413  4.1200000000000D+00  0.0000000000000D+00  0.0000000000000D+00
414  4.1300000000000D+00  0.0000000000000D+00  0.0000000000000D+00
415  4.1400000000000D+00  0.0000000000000D+00  0.0000000000000D+00
416  4.1500000000000D+00  0.0000000000000D+00  0.0000000000000D+00
417  4.1600000000000D+00  0.0000000000000D+00  0.0000000000000D+00
418  4.1700000000000D+00  0.0000000000000D+00  0.0000000000000D+00
419  4.1800000000000D+00  0.0000000000000D+00  0.0000000000000D+00
420  4.1900000000000D+00  0.0000000000000D+00  0.0000000000000D+00
421  4.2000000000000D+00  0.0000000000000D+00  0.0000000000000D+00
422  4.2100000000000D+00  0.0000000000000D+00  0.0000000000000D+00
423  4.2200000000000D+00  0.0000000000000D+00  0.0000000000000D+00
424  4.2300000000000D+00  0.0000000000000D+00  0.0000000000000D+00
425  4.2400000000000D+00  0.0000000000000D+00  0.0000000000000D+00
426  4.2500000000000D+00  0.0000000000000D+00  0.0000000000000D+00
427  4.2600000000000D+00  0.0000000000000D+00  0.0000000000000D+00
428  4.2700000000000D+00  0.0000000000000D+00  0.0000000000000D+00
429  4.2800000000000D+00  0.0000000000000D+00  0.0000000000000D+00
430  4.2900000000000D+00  0.0000000000000D+00  0.0000000000000D+00
431  4.3000000000000D+00  0.0000000000000D+00  0.0000000000000D+00
432  4.3100000000000D+00  0.0000000000000D+00  0.0000000000000D+00
433  4.3200000000000D+00  0.0000000000000D+00  0.0000000000000D+00
434  4.3300000000000D+00  0.0000000000000D+00  0.0000000000000D+00
435  4.3400000000000D+00  0.0000000000000D+00  0.0000000000000D+00
436  4.3500000000000D+00  0.0000000000000D+00  0.0000000000000D+00
437  4.3600000000000D+00  0.0000000000000D+00  0.0000000000000D+00
438  4.3700000000000D+00  0.0000000000000D+00  0.0000000000000D+00
439  4.3800000000000D+00  0.0000000000000D+00  0.0000000000000D+00
440  4.3900000000000D+00  0.0000000000000D+00  0.0000000000000D+00
441  4.4000000000000D+00  0.0000000000000D+00  0.0000000000000D+00
442  4.4100000000000D+00  0.0000000000000D+00  0.0000000000000D+00
443  4.4200000000000D+00  0.0000000000000D+00  0.0000000000000D+00