Sr    ONCVPSP-3.3.0  r_core=   1.51547   1.31335   1.51547
38.0000     10.0000      180429    zatom,zion,pspd
8 -116133   2     4   600     0    pspcod,pspxc,lmax,lloc,mmax,r2well
5.99000000  6.00000000  0.00000000    rchrg fchrg qchrg
2     3     3     0    nproj
3     1           extension_switch
4     3     0    nprojso
0                         9.1069314767896D-01  9.9502447635985D+00
1  0.0000000000000D+00 -7.4272646366502D-10  1.4763912314919D-10
2  1.0000000000000D-02 -1.4408072622887D-02  4.0220244467611D-02
3  2.0000000000000D-02 -2.8862890959431D-02  8.0433975233224D-02
4  3.0000000000000D-02 -4.3410047611099D-02  1.2063437032382D-01
5  4.0000000000000D-02 -5.8092844148747D-02  1.6081399469533D-01
6  5.0000000000000D-02 -7.2951183390165D-02  2.0096450233666D-01
7  6.0000000000000D-02 -8.8020506494949D-02  2.4107634863517D-01
8  7.0000000000000D-02 -1.0333078893278D-01  2.8113851624890D-01
9  8.0000000000000D-02 -1.1890560863853D-01  3.2113825758308D-01
10  9.0000000000000D-02 -1.3476129875651D-01  3.6106085678733D-01
11  1.0000000000000D-01 -1.5090619630860D-01  4.0088941397663D-01
12  1.1000000000000D-01 -1.6733999690955D-01  4.4060465413748D-01
13  1.2000000000000D-01 -1.8405322431293D-01  4.8018476291173D-01
14  1.3000000000000D-01 -2.0102682211990D-01  5.1960525115899D-01
15  1.4000000000000D-01 -2.1823187343796D-01  5.5883884988660D-01
16  1.5000000000000D-01 -2.3562945265765D-01  5.9785543680794D-01
17  1.6000000000000D-01 -2.5317061184238D-01  6.3662199544920D-01
18  1.7000000000000D-01 -2.7079650252087D-01  6.7510260737506D-01
19  1.8000000000000D-01 -2.8843863195465D-01  7.1325847774957D-01
20  1.9000000000000D-01 -3.0601925124680D-01  7.5104799409367D-01
21  2.0000000000000D-01 -3.2345187098373D-01  7.8842681774930D-01
22  2.1000000000000D-01 -3.4064189848090D-01  8.2534800721601D-01
23  2.2000000000000D-01 -3.5748738915677D-01  8.6176217219332D-01
24  2.3000000000000D-01 -3.7387990310643D-01  8.9761765684439D-01
25  2.4000000000000D-01 -3.8970545660633D-01  9.3286075049787D-01
26  2.5000000000000D-01 -4.0484555707164D-01  9.6743592372783D-01
27  2.6000000000000D-01 -4.1917830892346D-01  1.0012860875002D+00
28  2.7000000000000D-01 -4.3257957691913D-01  1.0343528728507D+00
29  2.8000000000000D-01 -4.4492419276597D-01  1.0665769283653D+00
30  2.9000000000000D-01 -4.5608719028863D-01  1.0978982325752D+00
31  3.0000000000000D-01 -4.6594505405816D-01  1.1282564182495D+00
32  3.1000000000000D-01 -4.7437696622478D-01  1.1575911054805D+00
33  3.2000000000000D-01 -4.8126603632590D-01  1.1858422403993D+00
34  3.3000000000000D-01 -4.8650049906926D-01  1.2129504363435D+00
35  3.4000000000000D-01 -4.8997486551377D-01  1.2388573143157D+00
36  3.5000000000000D-01 -4.9159101368348D-01  1.2635058396283D+00
37  3.6000000000000D-01 -4.9125920544625D-01  1.2868406517178D+00
38  3.7000000000000D-01 -4.8889901745729D-01  1.3088083842370D+00
39  3.8000000000000D-01 -4.8444017509760D-01  1.3293579726900D+00
40  3.9000000000000D-01 -4.7782327961312D-01  1.3484409470566D+00
41  4.0000000000000D-01 -4.6900042006766D-01  1.3660117070712D+00
42  4.1000000000000D-01 -4.5793566324000D-01  1.3820277780517D+00
43  4.2000000000000D-01 -4.4460541620735D-01  1.3964500454375D+00
44  4.3000000000000D-01 -4.2899865803865D-01  1.4092429664661D+00
45  4.4000000000000D-01 -4.1111703875236D-01  1.4203747577122D+00
46  4.5000000000000D-01 -3.9097484545031D-01  1.4298175575066D+00
47  4.6000000000000D-01 -3.6859883729812D-01  1.4375475625627D+00
48  4.7000000000000D-01 -3.4402795276086D-01  1.4435451384424D+00
49  4.8000000000000D-01 -3.1731289419570D-01  1.4477949037976D+00
50  4.9000000000000D-01 -2.8851559652668D-01  1.4502857886252D+00
51  5.0000000000000D-01 -2.5770858826187D-01  1.4510110670584D+00
52  5.1000000000000D-01 -2.2497425453340D-01  1.4499683654934D+00
53  5.2000000000000D-01 -1.9040401312991D-01  1.4471596471080D+00
54  5.3000000000000D-01 -1.5409741562842D-01  1.4425911740610D+00
55  5.4000000000000D-01 -1.1616118670276D-01  1.4362734488788D+00
56  5.5000000000000D-01 -7.6708215472916D-02  1.4282211367136D+00
57  5.6000000000000D-01 -3.5856513352069D-02  1.4184529703197D+00
58  5.7000000000000D-01  6.2718467618100D-03  1.4069916397144D+00
59  5.8000000000000D-01  4.9551794927144D-02  1.3938636685843D+00
60  5.9000000000000D-01  9.3856317246374D-02  1.3790992795559D+00
61  6.0000000000000D-01  1.3905748286797D-01  1.3627322504715D+00
62  6.1000000000000D-01  1.8502743064093D-01  1.3447997638040D+00
63  6.2000000000000D-01  2.3163930183566D-01  1.3253422512973D+00
64  6.3000000000000D-01  2.7876810622823D-01  1.3044032358418D+00
65  6.4000000000000D-01  3.2629150991708D-01  1.2820291724882D+00
66  6.5000000000000D-01  3.7409053448682D-01  1.2582692903591D+00
67  6.6000000000000D-01  4.2205015855175D-01  1.2331754370571D+00
68  6.7000000000000D-01  4.7005981426319D-01  1.2068019269721D+00
69  6.8000000000000D-01  5.1801377303815D-01  1.1792053946813D+00
70  6.9000000000000D-01  5.6581141655103D-01  1.1504446544044D+00
71  7.0000000000000D-01  6.1335739087603D-01  1.1205805662274D+00
72  7.1000000000000D-01  6.6056164357115D-01  1.0896759095595D+00
73  7.2000000000000D-01  7.0733934541238D-01  1.0577952640203D+00
74  7.3000000000000D-01  7.5361070041151D-01  1.0250048976942D+00
75  7.4000000000000D-01  7.9930064962778D-01  9.9137266242696D-01
76  7.5000000000000D-01  8.4433847610816D-01  9.5696789558503D-01
77  7.6000000000000D-01  8.8865732002306D-01  9.2186132745827D-01
78  7.7000000000000D-01  9.3219361468263D-01  8.8612499325672D-01
79  7.8000000000000D-01  9.7488645559120D-01  8.4983214844782D-01
80  7.9000000000000D-01  1.0166769160151D+00  8.1305718599518D-01
81  8.0000000000000D-01  1.0575073236577D+00  7.7587555390473D-01
82  8.1000000000000D-01  1.0973205139582D+00  7.3836367135729D-01
83  8.2000000000000D-01  1.1360590762217D+00  7.0059884161393D-01
84  8.3000000000000D-01  1.1736646092514D+00  6.6265915982215D-01
85  8.4000000000000D-01  1.2100770033580D+00  6.2462341383065D-01
86  8.5000000000000D-01  1.2452337655789D+00  5.8657097613757D-01
87  8.6000000000000D-01  1.2790694046316D+00  5.4858168515431D-01
88  8.7000000000000D-01  1.3115148915583D+00  5.1073571406243D-01
89  8.8000000000000D-01  1.3424972111956D+00  4.7311342567631D-01
90  8.9000000000000D-01  1.3719390185243D+00  4.3579521189626D-01
91  9.0000000000000D-01  1.3997584126407D+00  3.9886131654572D-01
92  9.1000000000000D-01  1.4258688395449D+00  3.6239164062810D-01
93  9.2000000000000D-01  1.4501791331904D+00  3.2646552931292D-01
94  9.3000000000000D-01  1.4725937022963D+00  2.9116154026185D-01
95  9.4000000000000D-01  1.4930128683174D+00  2.5655719323086D-01
96  9.5000000000000D-01  1.5113333577147D+00  2.2272870123085D-01
97  9.6000000000000D-01  1.5274489493147D+00  1.8975068388947D-01
98  9.7000000000000D-01  1.5412512751257D+00  1.5769586402513D-01
99  9.8000000000000D-01  1.5526307704534D+00  1.2663474882664D-01
100  9.9000000000000D-01  1.5614777666945D+00  9.6635297402816D-02
101  1.0000000000000D+00  1.5676837176877D+00  6.7762576839292D-02
102  1.0100000000000D+00  1.5711425480818D+00  4.0078409258733D-02
103  1.0200000000000D+00  1.5717521098427D+00  1.3641012723203D-02
104  1.0300000000000D+00  1.5694157307664D+00 -1.1495360856733D-02
105  1.0400000000000D+00  1.5640438369246D+00 -3.5280787364469D-02
106  1.0500000000000D+00  1.5555556289185D+00 -5.7670027943859D-02
107  1.0600000000000D+00  1.5438807902891D+00 -7.8622878356598D-02
108  1.0700000000000D+00  1.5289612049597D+00 -9.8104506105770D-02
109  1.0800000000000D+00  1.5107526594272D+00 -1.1608577106330D-01
110  1.0900000000000D+00  1.4892265046064D+00 -1.3254352525163D-01
111  1.1000000000000D+00  1.4643712515624D+00 -1.4746088737890D-01
112  1.1100000000000D+00  1.4361940751847D+00 -1.6082748774662D-01
113  1.1200000000000D+00  1.4047221999326D+00 -1.7263967921626D-01
114  1.1300000000000D+00  1.3700041421840D+00 -1.8290071003941D-01
115  1.1400000000000D+00  1.3321107843308D+00 -1.9162085450849D-01
116  1.1500000000000D+00  1.2911362569775D+00 -1.9881749764270D-01
117  1.1600000000000D+00  1.2471986069850D+00 -2.0451517040219D-01
118  1.1700000000000D+00  1.2004402306308D+00 -2.0874553222229D-01
119  1.1800000000000D+00  1.1510280530693D+00 -2.1154729802767D-01
120  1.1900000000000D+00  1.0991534377537D+00 -2.1296610734663D-01
121  1.2000000000000D+00  1.0450318122179D+00 -2.1305433364502D-01
122  1.2100000000000D+00  9.8890199800812D-01 -2.1187083225665D-01
123  1.2200000000000D+00  9.3102523701825D-01 -2.0948062609177D-01
124  1.2300000000000D+00  8.7168390896667D-01 -2.0595452874283D-01
125  1.2400000000000D+00  8.1117993715397D-01 -2.0136870503558D-01
126  1.2500000000000D+00  7.4983288345731D-01 -1.9580416974809D-01
127  1.2600000000000D+00  6.8797773744076D-01 -1.8934622590465D-01
128  1.2700000000000D+00  6.2596240283173D-01 -1.8208384391315D-01
129  1.2800000000000D+00  5.6414491222639D-01 -1.7410898661684D-01
130  1.2900000000000D+00  5.0289029187687D-01 -1.6551587056813D-01
131  1.3000000000000D+00  4.4256753577648D-01 -1.5640022900626D-01
132  1.3100000000000D+00  3.8354533830729D-01 -1.4685838919548D-01
133  1.3200000000000D+00  3.2618876557221D-01 -1.3698647073144D-01
134  1.3300000000000D+00  2.7086012731859D-01 -1.2688011579644D-01
135  1.3400000000000D+00  2.1791984148196D-01 -1.1663430950435D-01
136  1.3500000000000D+00  1.6772758967835D-01 -1.0634329557072D-01
137  1.3600000000000D+00  1.2063854333962D-01 -9.6099872165061D-02
138  1.3700000000000D+00  7.7000313346206D-02 -8.5994788814335D-02
139  1.3800000000000D+00  3.7150087941590D-02 -7.6116163273996D-02
140  1.3900000000000D+00  1.4116296483676D-03 -6.6548888944985D-02
141  1.4000000000000D+00 -2.9907664862819D-02 -5.7374056074753D-02
142  1.4100000000000D+00 -5.6519637381775D-02 -4.8668389255310D-02
143  1.4200000000000D+00 -7.8158136724860D-02 -4.0503707220997D-02
144  1.4300000000000D+00 -9.4581658149081D-02 -3.2946409331824D-02
145  1.4400000000000D+00 -1.0557582147196D-01 -2.6056994249567D-02
146  1.4500000000000D+00 -1.1095566620691D-01 -1.9889614532662D-02
147  1.4600000000000D+00 -1.1056773500861D-01 -1.4491672070879D-02
148  1.4700000000000D+00 -1.0413661261182D-01 -9.9057884776614D-03
149  1.4800000000000D+00 -9.2093251851044D-02 -6.1573212801480D-03
150  1.4900000000000D+00 -7.5058334611739D-02 -3.2662845310251D-03
151  1.5000000000000D+00 -4.7651709492097D-02 -1.2993379559890D-03
152  1.5100000000000D+00 -1.3808069628808D-02 -2.3207666794994D-04
153  1.5200000000000D+00  4.3437079212064D-03  1.1157659703998D-04
154  1.5300000000000D+00  2.4506736337386D-03  4.8744259548797D-05
155  1.5400000000000D+00 -1.1556321650380D-03 -3.0427704856931D-05
156  1.5500000000000D+00 -3.7889492592018D-04 -9.6037080580188D-06
157  1.5600000000000D+00  1.5577144947793D-04  5.6494742871763D-06
158  1.5700000000000D+00  1.7046271025599D-05  6.1284233539732D-07
159  1.5800000000000D+00  1.6954563018245D-07 -9.3133337457127D-08
160  1.5900000000000D+00  0.0000000000000D+00  0.0000000000000D+00
161  1.6000000000000D+00  0.0000000000000D+00  0.0000000000000D+00
162  1.6100000000000D+00  0.0000000000000D+00  0.0000000000000D+00
163  1.6200000000000D+00  0.0000000000000D+00  0.0000000000000D+00
164  1.6300000000000D+00  0.0000000000000D+00  0.0000000000000D+00
165  1.6400000000000D+00  0.0000000000000D+00  0.0000000000000D+00
166  1.6500000000000D+00  0.0000000000000D+00  0.0000000000000D+00
167  1.6600000000000D+00  0.0000000000000D+00  0.0000000000000D+00
168  1.6700000000000D+00  0.0000000000000D+00  0.0000000000000D+00
169  1.6800000000000D+00  0.0000000000000D+00  0.0000000000000D+00
170  1.6900000000000D+00  0.0000000000000D+00  0.0000000000000D+00
171  1.7000000000000D+00  0.0000000000000D+00  0.0000000000000D+00
172  1.7100000000000D+00  0.0000000000000D+00  0.0000000000000D+00
173  1.7200000000000D+00  0.0000000000000D+00  0.0000000000000D+00
174  1.7300000000000D+00  0.0000000000000D+00  0.0000000000000D+00
175  1.7400000000000D+00  0.0000000000000D+00  0.0000000000000D+00
176  1.7500000000000D+00  0.0000000000000D+00  0.0000000000000D+00
177  1.7600000000000D+00  0.0000000000000D+00  0.0000000000000D+00
178  1.7700000000000D+00  0.0000000000000D+00  0.0000000000000D+00
179  1.7800000000000D+00  0.0000000000000D+00  0.0000000000000D+00
180  1.7900000000000D+00  0.0000000000000D+00  0.0000000000000D+00
181  1.8000000000000D+00  0.0000000000000D+00  0.0000000000000D+00
182  1.8100000000000D+00  0.0000000000000D+00  0.0000000000000D+00
183  1.8200000000000D+00  0.0000000000000D+00  0.0000000000000D+00
184  1.8300000000000D+00  0.0000000000000D+00  0.0000000000000D+00
185  1.8400000000000D+00  0.0000000000000D+00  0.0000000000000D+00
186  1.8500000000000D+00  0.0000000000000D+00  0.0000000000000D+00
187  1.8600000000000D+00  0.0000000000000D+00  0.0000000000000D+00
188  1.8700000000000D+00  0.0000000000000D+00  0.0000000000000D+00
189  1.8800000000000D+00  0.0000000000000D+00  0.0000000000000D+00
190  1.8900000000000D+00  0.0000000000000D+00  0.0000000000000D+00
191  1.9000000000000D+00  0.0000000000000D+00  0.0000000000000D+00
192  1.9100000000000D+00  0.0000000000000D+00  0.0000000000000D+00
193  1.9200000000000D+00  0.0000000000000D+00  0.0000000000000D+00
194  1.9300000000000D+00  0.0000000000000D+00  0.0000000000000D+00
195  1.9400000000000D+00  0.0000000000000D+00  0.0000000000000D+00
196  1.9500000000000D+00  0.0000000000000D+00  0.0000000000000D+00
197  1.9600000000000D+00  0.0000000000000D+00  0.0000000000000D+00
198  1.9700000000000D+00  0.0000000000000D+00  0.0000000000000D+00
199  1.9800000000000D+00  0.0000000000000D+00  0.0000000000000D+00
200  1.9900000000000D+00  0.0000000000000D+00  0.0000000000000D+00
201  2.0000000000000D+00  0.0000000000000D+00  0.0000000000000D+00
202  2.0100000000000D+00  0.0000000000000D+00  0.0000000000000D+00
203  2.0200000000000D+00  0.0000000000000D+00  0.0000000000000D+00
204  2.0300000000000D+00  0.0000000000000D+00  0.0000000000000D+00
205  2.0400000000000D+00  0.0000000000000D+00  0.0000000000000D+00
206  2.0500000000000D+00  0.0000000000000D+00  0.0000000000000D+00
207  2.0600000000000D+00  0.0000000000000D+00  0.0000000000000D+00
208  2.0700000000000D+00  0.0000000000000D+00  0.0000000000000D+00
209  2.0800000000000D+00  0.0000000000000D+00  0.0000000000000D+00
210  2.0900000000000D+00  0.0000000000000D+00  0.0000000000000D+00
211  2.1000000000000D+00  0.0000000000000D+00  0.0000000000000D+00
212  2.1100000000000D+00  0.0000000000000D+00  0.0000000000000D+00
213  2.1200000000000D+00  0.0000000000000D+00  0.0000000000000D+00
214  2.1300000000000D+00  0.0000000000000D+00  0.0000000000000D+00
215  2.1400000000000D+00  0.0000000000000D+00  0.0000000000000D+00
216  2.1500000000000D+00  0.0000000000000D+00  0.0000000000000D+00
217  2.1600000000000D+00  0.0000000000000D+00  0.0000000000000D+00
218  2.1700000000000D+00  0.0000000000000D+00  0.0000000000000D+00
219  2.1800000000000D+00  0.0000000000000D+00  0.0000000000000D+00
220  2.1900000000000D+00  0.0000000000000D+00  0.0000000000000D+00
221  2.2000000000000D+00  0.0000000000000D+00  0.0000000000000D+00
222  2.2100000000000D+00  0.0000000000000D+00  0.0000000000000D+00
223  2.2200000000000D+00  0.0000000000000D+00  0.0000000000000D+00
224  2.2300000000000D+00  0.0000000000000D+00  0.0000000000000D+00
225  2.2400000000000D+00  0.0000000000000D+00  0.0000000000000D+00
226  2.2500000000000D+00  0.0000000000000D+00  0.0000000000000D+00
227  2.2600000000000D+00  0.0000000000000D+00  0.0000000000000D+00
228  2.2700000000000D+00  0.0000000000000D+00  0.0000000000000D+00
229  2.2800000000000D+00  0.0000000000000D+00  0.0000000000000D+00
230  2.2900000000000D+00  0.0000000000000D+00  0.0000000000000D+00
231  2.3000000000000D+00  0.0000000000000D+00  0.0000000000000D+00
232  2.3100000000000D+00  0.0000000000000D+00  0.0000000000000D+00
233  2.3200000000000D+00  0.0000000000000D+00  0.0000000000000D+00
234  2.3300000000000D+00  0.0000000000000D+00  0.0000000000000D+00
235  2.3400000000000D+00  0.0000000000000D+00  0.0000000000000D+00
236  2.3500000000000D+00  0.0000000000000D+00  0.0000000000000D+00
237  2.3600000000000D+00  0.0000000000000D+00  0.0000000000000D+00
238  2.3700000000000D+00  0.0000000000000D+00  0.0000000000000D+00
239  2.3800000000000D+00  0.0000000000000D+00  0.0000000000000D+00
240  2.3900000000000D+00  0.0000000000000D+00  0.0000000000000D+00
241  2.4000000000000D+00  0.0000000000000D+00  0.0000000000000D+00
242  2.4100000000000D+00  0.0000000000000D+00  0.0000000000000D+00
243  2.4200000000000D+00  0.0000000000000D+00  0.0000000000000D+00
244  2.4300000000000D+00  0.0000000000000D+00  0.0000000000000D+00
245  2.4400000000000D+00  0.0000000000000D+00  0.0000000000000D+00
246  2.4500000000000D+00  0.0000000000000D+00  0.0000000000000D+00
247  2.4600000000000D+00  0.0000000000000D+00  0.0000000000000D+00
248  2.4700000000000D+00  0.0000000000000D+00  0.0000000000000D+00
249  2.4800000000000D+00  0.0000000000000D+00  0.0000000000000D+00
250  2.4900000000000D+00  0.0000000000000D+00  0.0000000000000D+00
251  2.5000000000000D+00  0.0000000000000D+00  0.0000000000000D+00
252  2.5100000000000D+00  0.0000000000000D+00  0.0000000000000D+00
253  2.5200000000000D+00  0.0000000000000D+00  0.0000000000000D+00
254  2.5300000000000D+00  0.0000000000000D+00  0.0000000000000D+00
255  2.5400000000000D+00  0.0000000000000D+00  0.0000000000000D+00
256  2.5500000000000D+00  0.0000000000000D+00  0.0000000000000D+00
257  2.5600000000000D+00  0.0000000000000D+00  0.0000000000000D+00
258  2.5700000000000D+00  0.0000000000000D+00  0.0000000000000D+00
259  2.5800000000000D+00  0.0000000000000D+00  0.0000000000000D+00
260  2.5900000000000D+00  0.0000000000000D+00  0.0000000000000D+00
261  2.6000000000000D+00  0.0000000000000D+00  0.0000000000000D+00
262  2.6100000000000D+00  0.0000000000000D+00  0.0000000000000D+00
263  2.6200000000000D+00  0.0000000000000D+00  0.0000000000000D+00
264  2.6300000000000D+00  0.0000000000000D+00  0.0000000000000D+00
265  2.6400000000000D+00  0.0000000000000D+00  0.0000000000000D+00
266  2.6500000000000D+00  0.0000000000000D+00  0.0000000000000D+00
267  2.6600000000000D+00  0.0000000000000D+00  0.0000000000000D+00
268  2.6700000000000D+00  0.0000000000000D+00  0.0000000000000D+00
269  2.6800000000000D+00  0.0000000000000D+00  0.0000000000000D+00
270  2.6900000000000D+00  0.0000000000000D+00  0.0000000000000D+00
271  2.7000000000000D+00  0.0000000000000D+00  0.0000000000000D+00
272  2.7100000000000D+00  0.0000000000000D+00  0.0000000000000D+00
273  2.7200000000000D+00  0.0000000000000D+00  0.0000000000000D+00
274  2.7300000000000D+00  0.0000000000000D+00  0.0000000000000D+00
275  2.7400000000000D+00  0.0000000000000D+00  0.0000000000000D+00
276  2.7500000000000D+00  0.0000000000000D+00  0.0000000000000D+00
277  2.7600000000000D+00  0.0000000000000D+00  0.0000000000000D+00
278  2.7700000000000D+00  0.0000000000000D+00  0.0000000000000D+00
279  2.7800000000000D+00  0.0000000000000D+00  0.0000000000000D+00
280  2.7900000000000D+00  0.0000000000000D+00  0.0000000000000D+00
281  2.8000000000000D+00  0.0000000000000D+00  0.0000000000000D+00
282  2.8100000000000D+00  0.0000000000000D+00  0.0000000000000D+00
283  2.8200000000000D+00  0.0000000000000D+00  0.0000000000000D+00
284  2.8300000000000D+00  0.0000000000000D+00  0.0000000000000D+00
285  2.8400000000000D+00  0.0000000000000D+00  0.0000000000000D+00
286  2.8500000000000D+00  0.0000000000000D+00  0.0000000000000D+00
287  2.8600000000000D+00  0.0000000000000D+00  0.0000000000000D+00
288  2.8700000000000D+00  0.0000000000000D+00  0.0000000000000D+00
289  2.8800000000000D+00  0.0000000000000D+00  0.0000000000000D+00
290  2.8900000000000D+00  0.0000000000000D+00  0.0000000000000D+00
291  2.9000000000000D+00  0.0000000000000D+00  0.0000000000000D+00
292  2.9100000000000D+00  0.0000000000000D+00  0.0000000000000D+00
293  2.9200000000000D+00  0.0000000000000D+00  0.0000000000000D+00
294  2.9300000000000D+00  0.0000000000000D+00  0.0000000000000D+00
295  2.9400000000000D+00  0.0000000000000D+00  0.0000000000000D+00
296  2.9500000000000D+00  0.0000000000000D+00  0.0000000000000D+00
297  2.9600000000000D+00  0.0000000000000D+00  0.0000000000000D+00
298  2.9700000000000D+00  0.0000000000000D+00  0.0000000000000D+00
299  2.9800000000000D+00  0.0000000000000D+00  0.0000000000000D+00
300  2.9900000000000D+00  0.0000000000000D+00  0.0000000000000D+00
301  3.0000000000000D+00  0.0000000000000D+00  0.0000000000000D+00
302  3.0100000000000D+00  0.0000000000000D+00  0.0000000000000D+00
303  3.0200000000000D+00  0.0000000000000D+00  0.0000000000000D+00
304  3.0300000000000D+00  0.0000000000000D+00  0.0000000000000D+00
305  3.0400000000000D+00  0.0000000000000D+00  0.0000000000000D+00
306  3.0500000000000D+00  0.0000000000000D+00  0.0000000000000D+00
307  3.0600000000000D+00  0.0000000000000D+00  0.0000000000000D+00
308  3.0700000000000D+00  0.0000000000000D+00  0.0000000000000D+00
309  3.0800000000000D+00  0.0000000000000D+00  0.0000000000000D+00
310  3.0900000000000D+00  0.0000000000000D+00  0.0000000000000D+00
311  3.1000000000000D+00  0.0000000000000D+00  0.0000000000000D+00
312  3.1100000000000D+00  0.0000000000000D+00  0.0000000000000D+00
313  3.1200000000000D+00  0.0000000000000D+00  0.0000000000000D+00
314  3.1300000000000D+00  0.0000000000000D+00  0.0000000000000D+00
315  3.1400000000000D+00  0.0000000000000D+00  0.0000000000000D+00
316  3.1500000000000D+00  0.0000000000000D+00  0.0000000000000D+00
317  3.1600000000000D+00  0.0000000000000D+00  0.0000000000000D+00
318  3.1700000000000D+00  0.0000000000000D+00  0.0000000000000D+00
319  3.1800000000000D+00  0.0000000000000D+00  0.0000000000000D+00
320  3.1900000000000D+00  0.0000000000000D+00  0.0000000000000D+00
321  3.2000000000000D+00  0.0000000000000D+00  0.0000000000000D+00
322  3.2100000000000D+00  0.0000000000000D+00  0.0000000000000D+00
323  3.2200000000000D+00  0.0000000000000D+00  0.0000000000000D+00
324  3.2300000000000D+00  0.0000000000000D+00  0.0000000000000D+00
325  3.2400000000000D+00  0.0000000000000D+00  0.0000000000000D+00
326  3.2500000000000D+00  0.0000000000000D+00  0.0000000000000D+00
327  3.2600000000000D+00  0.0000000000000D+00  0.0000000000000D+00
328  3.2700000000000D+00  0.0000000000000D+00  0.0000000000000D+00
329  3.2800000000000D+00  0.0000000000000D+00  0.0000000000000D+00
330  3.2900000000000D+00  0.0000000000000D+00  0.0000000000000D+00
331  3.3000000000000D+00  0.0000000000000D+00  0.0000000000000D+00
332  3.3100000000000D+00  0.0000000000000D+00  0.0000000000000D+00
333  3.3200000000000D+00  0.0000000000000D+00  0.0000000000000D+00
334  3.3300000000000D+00  0.0000000000000D+00  0.0000000000000D+00
335  3.3400000000000D+00  0.0000000000000D+00  0.0000000000000D+00
336  3.3500000000000D+00  0.0000000000000D+00  0.0000000000000D+00
337  3.3600000000000D+00  0.0000000000000D+00  0.0000000000000D+00
338  3.3700000000000D+00  0.0000000000000D+00  0.0000000000000D+00
339  3.3800000000000D+00  0.0000000000000D+00  0.0000000000000D+00
340  3.3900000000000D+00  0.0000000000000D+00  0.0000000000000D+00
341  3.4000000000000D+00  0.0000000000000D+00  0.0000000000000D+00
342  3.4100000000000D+00  0.0000000000000D+00  0.0000000000000D+00
343  3.4200000000000D+00  0.0000000000000D+00  0.0000000000000D+00
344  3.4300000000000D+00  0.0000000000000D+00  0.0000000000000D+00
345  3.4400000000000D+00  0.0000000000000D+00  0.0000000000000D+00
346  3.4500000000000D+00  0.0000000000000D+00  0.0000000000000D+00
347  3.4600000000000D+00  0.0000000000000D+00  0.0000000000000D+00
348  3.4700000000000D+00  0.0000000000000D+00  0.0000000000000D+00
349  3.4800000000000D+00  0.0000000000000D+00  0.0000000000000D+00
350  3.4900000000000D+00  0.0000000000000D+00  0.0000000000000D+00
351  3.5000000000000D+00  0.0000000000000D+00  0.0000000000000D+00
352  3.5100000000000D+00  0.0000000000000D+00  0.0000000000000D+00
353  3.5200000000000D+00  0.0000000000000D+00  0.0000000000000D+00
354  3.5300000000000D+00  0.0000000000000D+00  0.0000000000000D+00
355  3.5400000000000D+00  0.0000000000000D+00  0.0000000000000D+00
356  3.5500000000000D+00  0.0000000000000D+00  0.0000000000000D+00
357  3.5600000000000D+00  0.0000000000000D+00  0.0000000000000D+00
358  3.5700000000000D+00  0.0000000000000D+00  0.0000000000000D+00
359  3.5800000000000D+00  0.0000000000000D+00  0.0000000000000D+00
360  3.5900000000000D+00  0.0000000000000D+00  0.0000000000000D+00
361  3.6000000000000D+00  0.0000000000000D+00  0.0000000000000D+00
362  3.6100000000000D+00  0.0000000000000D+00  0.0000000000000D+00
363  3.6200000000000D+00  0.0000000000000D+00  0.0000000000000D+00
364  3.6300000000000D+00  0.0000000000000D+00  0.0000000000000D+00
365  3.6400000000000D+00  0.0000000000000D+00  0.0000000000000D+00
366  3.6500000000000D+00  0.0000000000000D+00  0.0000000000000D+00
367  3.6600000000000D+00  0.0000000000000D+00  0.0000000000000D+00
368  3.6700000000000D+00  0.0000000000000D+00  0.0000000000000D+00
369  3.6800000000000D+00  0.0000000000000D+00  0.0000000000000D+00
370  3.6900000000000D+00  0.0000000000000D+00  0.0000000000000D+00
371  3.7000000000000D+00  0.0000000000000D+00  0.0000000000000D+00
372  3.7100000000000D+00  0.0000000000000D+00  0.0000000000000D+00
373  3.7200000000000D+00  0.0000000000000D+00  0.0000000000000D+00
374  3.7300000000000D+00  0.0000000000000D+00  0.0000000000000D+00
375  3.7400000000000D+00  0.0000000000000D+00  0.0000000000000D+00
376  3.7500000000000D+00  0.0000000000000D+00  0.0000000000000D+00
377  3.7600000000000D+00  0.0000000000000D+00  0.0000000000000D+00
378  3.7700000000000D+00  0.0000000000000D+00  0.0000000000000D+00
379  3.7800000000000D+00  0.0000000000000D+00  0.0000000000000D+00
380  3.7900000000000D+00  0.0000000000000D+00  0.0000000000000D+00
381  3.8000000000000D+00  0.0000000000000D+00  0.0000000000000D+00
382  3.8100000000000D+00  0.0000000000000D+00  0.0000000000000D+00
383  3.8200000000000D+00  0.0000000000000D+00  0.0000000000000D+00
384  3.8300000000000D+00  0.0000000000000D+00  0.0000000000000D+00
385  3.8400000000000D+00  0.0000000000000D+00  0.0000000000000D+00
386  3.8500000000000D+00  0.0000000000000D+00  0.0000000000000D+00
387  3.8600000000000D+00  0.0000000000000D+00  0.0000000000000D+00
388  3.8700000000000D+00  0.0000000000000D+00  0.0000000000000D+00
389  3.8800000000000D+00  0.0000000000000D+00  0.0000000000000D+00
390  3.8900000000000D+00  0.0000000000000D+00  0.0000000000000D+00
391  3.9000000000000D+00  0.0000000000000D+00  0.0000000000000D+00
392  3.9100000000000D+00  0.0000000000000D+00  0.0000000000000D+00
393  3.9200000000000D+00  0.0000000000000D+00  0.0000000000000D+00
394  3.9300000000000D+00  0.0000000000000D+00  0.0000000000000D+00
395  3.9400000000000D+00  0.0000000000000D+00  0.0000000000000D+00
396  3.9500000000000D+00  0.0000000000000D+00  0.0000000000000D+00
397  3.9600000000000D+00  0.0000000000000D+00  0.0000000000000D+00
398  3.9700000000000D+00  0.0000000000000D+00  0.0000000000000D+00
399  3.9800000000000D+00  0.0000000000000D+00  0.0000000000000D+00
400  3.9900000000000D+00  0.0000000000000D+00  0.0000000000000D+00
401  4.0000000000000D+00  0.0000000000000D+00  0.0000000000000D+00
402  4.0100000000000D+00  0.0000000000000D+00  0.0000000000000D+00
403  4.0200000000000D+00  0.0000000000000D+00  0.0000000000000D+00
404  4.0300000000000D+00  0.0000000000000D+00  0.0000000000000D+00
405  4.0400000000000D+00  0.0000000000000D+00  0.0000000000000D+00
406  4.0500000000000D+00  0.0000000000000D+00  0.0000000000000D+00
407  4.0600000000000D+00  0.0000000000000D+00  0.0000000000000D+00
408  4.0700000000000D+00  0.0000000000000D+00  0.0000000000000D+00
409  4.0800000000000D+00  0.0000000000000D+00  0.0000000000000D+00
410  4.0900000000000D+00  0.0000000000000D+00  0.0000000000000D+00
411  4.1000000000000D+00  0.0000000000000D+00  0.0000000000000D+00
412  4.1100000000000D+00  0.0000000000000D+00  0.0000000000000D+00
413  4.1200000000000D+00  0.0000000000000D+00  0.0000000000000D+00
414  4.1300000000000D+00  0.0000000000000D+00  0.0000000000000D+00
415  4.1400000000000D+00  0.0000000000000D+00  0.0000000000000D+00
416  4.1500000000000D+00  0.0000000000000D+00  0.0000000000000D+00
417  4.1600000000000D+00  0.0000000000000D+00  0.0000000000000D+00
418  4.1700000000000D+00  0.0000000000000D+00  0.0000000000000D+00
419  4.1800000000000D+00  0.0000000000000D+00  0.0000000000000D+00
420  4.1900000000000D+00  0.0000000000000D+00  0.0000000000000D+00
421  4.2000000000000D+00  0.0000000000000D+00  0.0000000000000D+00
422  4.2100000000000D+00  0.0000000000000D+00  0.0000000000000D+00
423  4.2200000000000D+00  0.0000000000000D+00  0.0000000000000D+00
424  4.2300000000000D+00  0.0000000000000D+00  0.0000000000000D+00
425  4.2400000000000D+00  0.0000000000000D+00  0.0000000000000D+00
426  4.2500000000000D+00  0.0000000000000D+00  0.0000000000000D+00
427  4.2600000000000D+00  0.0000000000000D+00  0.0000000000000D+00
428  4.2700000000000D+00  0.0000000000000D+00  0.0000000000000D+00
429  4.2800000000000D+00  0.0000000000000D+00  0.0000000000000D+00
430  4.2900000000000D+00  0.0000000000000D+00  0.0000000000000D+00
431  4.3000000000000D+00  0.0000000000000D+00  0.0000000000000D+00
432  4.3100000000000D+00  0.0000000000000D+00  0.0000000000000D+00
433  4.3200000000000D+00  0.0000000000000D+00  0.0000000000000D+00
434  4.3300000000000D+00  0.0000000000000D+00  0.0000000000000D+00
435  4.3400000000000D+00  0.0000000000000D+00  0.0000000000000D+00
436  4.3500000000000D+00  0.0000000000000D+00  0.0000000000000D+00
437  4.3600000000000D+00  0.0000000000000D+00  0.0000000000000D+00
438  4.3700000000000D+00  0.0000000000000D+00  0.0000000000000D+00
439  4.3800000000000D+00  0.0000000000000D+00  0.0000000000000D+00
440  4.3900000000000D+00  0.0000000000000D+00  0.0000000000000D+00
441  4.4000000000000D+00  0.0000000000000D+00  0.0000000000000D+00
442  4.4100000000000D+00  0.0000000000000D+00  0.0000000000000D+00
443  4.4200000000000D+00  0.0000000000000D+00  0.0000000000000D+00