Ta    ONCVPSP-3.3.0  r_core=   2.30810   1.86211   2.07314   1.61376
73.0000     27.0000      180430    zatom,zion,pspd
8 -116133   3     4   600     0    pspcod,pspxc,lmax,lloc,mmax,r2well
5.99000000  5.00000000  0.00000000    rchrg fchrg qchrg
2     4     4     2    nproj
3     1           extension_switch
4     4     3    nprojso
0                         9.1710409241792D-01  4.5525838648068D+00
1  0.0000000000000D+00 -3.5089379318842D-12  5.0009996144240D-13
2  1.0000000000000D-02 -1.6492986122994D-03  4.5622652312592D-02
3  2.0000000000000D-02 -3.2890262166139D-03  9.1194435153377D-02
4  3.0000000000000D-02 -4.9095802816758D-03  1.3666453410932D-01
5  4.0000000000000D-02 -6.5012954695331D-03  1.8198224486415D-01
6  5.0000000000000D-02 -8.0544128310336D-03  2.2709702819464D-01
7  6.0000000000000D-02 -9.5590497174445D-03  2.7195856490405D-01
8  7.0000000000000D-02 -1.1005170642833D-02  3.1651681067115D-01
9  8.0000000000000D-02 -1.2382559328326D-02  3.6072205079283D-01
10  9.0000000000000D-02 -1.3680792155035D-02  4.0452495479759D-01
11  1.0000000000000D-01 -1.4889213247161D-02  4.4787663090653D-01
12  1.1000000000000D-01 -1.5996911400775D-02  4.9072868031748D-01
13  1.2000000000000D-01 -1.6992699066813D-02  5.3303325128709D-01
14  1.3000000000000D-01 -1.7865093589124D-02  5.7474309298433D-01
15  1.4000000000000D-01 -1.8602300889777D-02  6.1581160908782D-01
16  1.5000000000000D-01 -1.9192201784558D-02  6.5619291109796D-01
17  1.6000000000000D-01 -1.9622341101334D-02  6.9584187133322D-01
18  1.7000000000000D-01 -1.9879919763103D-02  7.3471417557864D-01
19  1.8000000000000D-01 -1.9951789985826D-02  7.7276637535255D-01
20  1.9000000000000D-01 -1.9824453728763D-02  8.0995593975584D-01
21  2.0000000000000D-01 -1.9484064521910D-02  8.4624130686619D-01
22  2.1000000000000D-01 -1.8916432781306D-02  8.8158193463753D-01
23  2.2000000000000D-01 -1.8107034708635D-02  9.1593835126289D-01
24  2.3000000000000D-01 -1.7041024856412D-02  9.4927220495660D-01
25  2.4000000000000D-01 -1.5703252424472D-02  9.8154631310933D-01
26  2.5000000000000D-01 -1.4078281337245D-02  1.0127247107672D+00
27  2.6000000000000D-01 -1.2150414134697D-02  1.0427726983834D+00
28  2.7000000000000D-01 -9.9037196927338D-03  1.0716568887892D+00
29  2.8000000000000D-01 -7.3220647710953D-03  1.0993452533263D+00
30  2.9000000000000D-01 -4.3891493692054D-03  1.1258071670831D+00
31  3.0000000000000D-01 -1.0885458519868D-03  1.1510134531719D+00
32  3.1000000000000D-01  2.5962582107212D-03  1.1749364259826D+00
33  3.2000000000000D-01  6.6818135660901D-03  1.1975499333463D+00
34  3.3000000000000D-01  1.1184659255415D-02  1.2188293975378D+00
35  3.4000000000000D-01  1.6121269158971D-02  1.2387518550451D+00
36  3.5000000000000D-01  2.1507995240075D-02  1.2572959950303D+00
37  3.6000000000000D-01  2.7361007638570D-02  1.2744421964041D+00
38  3.7000000000000D-01  3.3696231782553D-02  1.2901725634336D+00
39  3.8000000000000D-01  4.0529282705485D-02  1.3044709598000D+00
40  3.9000000000000D-01  4.7875396774144D-02  1.3173230410228D+00
41  4.0000000000000D-01  5.5749361050263D-02  1.3287162851614D+00
42  4.1000000000000D-01  6.4165440526216D-02  1.3386400217061D+00
43  4.2000000000000D-01  7.3137303491842D-02  1.3470854585675D+00
44  4.3000000000000D-01  8.2677945305271D-02  1.3540457070720D+00
45  4.4000000000000D-01  9.2799610856516D-02  1.3595158048690D+00
46  4.5000000000000D-01  1.0351371602671D-01  1.3634927366551D+00
47  4.6000000000000D-01  1.1483076845996D-01  1.3659754526211D+00
48  4.7000000000000D-01  1.2676028797732D-01  1.3669648845230D+00
49  4.8000000000000D-01  1.3931072697439D-01  1.3664639592833D+00
50  4.9000000000000D-01  1.5248939115436D-01  1.3644776100250D+00
51  5.0000000000000D-01  1.6630236095804D-01  1.3610127844434D+00
52  5.1000000000000D-01  1.8075441406051D-01  1.3560784504212D+00
53  5.2000000000000D-01  1.9584894931068D-01  1.3496855987931D+00
54  5.3000000000000D-01  2.1158791249578D-01  1.3418472431697D+00
55  5.4000000000000D-01  2.2797172431647D-01  1.3325784167303D+00
56  5.5000000000000D-01  2.4499921096085D-01  1.3218961658996D+00
57  5.6000000000000D-01  2.6266753766628D-01  1.3098195408244D+00
58  5.7000000000000D-01  2.8097214565738D-01  1.2963695825709D+00
59  5.8000000000000D-01  2.9990669284569D-01  1.2815693069682D+00
60  5.9000000000000D-01  3.1946299867259D-01  1.2654436850269D+00
61  6.0000000000000D-01  3.3963099347077D-01  1.2480196198683D+00
62  6.1000000000000D-01  3.6039867271191D-01  1.2293259201045D+00
63  6.2000000000000D-01  3.8175205649858D-01  1.2093932696172D+00
64  6.3000000000000D-01  4.0367515464697D-01  1.1882541936891D+00
65  6.4000000000000D-01  4.2614993769373D-01  1.1659430214482D+00
66  6.5000000000000D-01  4.4915631414540D-01  1.1424958445966D+00
67  6.6000000000000D-01  4.7267211427151D-01  1.1179504724004D+00
68  6.7000000000000D-01  4.9667308072466D-01  1.0923463829275D+00
69  6.8000000000000D-01  5.2113286624953D-01  1.0657246705301D+00
70  6.9000000000000D-01  5.4602303872157D-01  1.0381279895791D+00
71  7.0000000000000D-01  5.7131309373176D-01  1.0096004944649D+00
72  7.1000000000000D-01  5.9697047490887D-01  9.8018777589544D-01
73  7.2000000000000D-01  6.2296060214368D-01  9.4993679352661D-01
74  7.3000000000000D-01  6.4924690785129D-01  9.1889580497878D-01
75  7.4000000000000D-01  6.7579088137810D-01  8.8711429129960D-01
76  7.5000000000000D-01  7.0255212162904D-01  8.5464287894853D-01
77  7.6000000000000D-01  7.2948839795866D-01  8.2153325838991D-01
78  7.7000000000000D-01  7.5655571933629D-01  7.8783809939424D-01
79  7.8000000000000D-01  7.8370841176201D-01  7.5361096316030D-01
80  7.9000000000000D-01  8.1089920387451D-01  7.1890621138342D-01
81  8.0000000000000D-01  8.3807932065730D-01  6.8377891240862D-01
82  8.1000000000000D-01  8.6519858511288D-01  6.4828474461989D-01
83  8.2000000000000D-01  8.9220552773884D-01  6.1247989723041D-01
84  8.3000000000000D-01  9.1904750360249D-01  5.7642096865081D-01
85  8.4000000000000D-01  9.4567081677467D-01  5.4016486262581D-01
86  8.5000000000000D-01  9.7202085184622D-01  5.0376868234166D-01
87  8.6000000000000D-01  9.9804221221473D-01  4.6728962271926D-01
88  8.7000000000000D-01  1.0236788647930D+00  4.3078486111972D-01
89  8.8000000000000D-01  1.0488742907554D+00  3.9431144670022D-01
90  8.9000000000000D-01  1.0735716419049D+00  3.5792618866955D-01
91  9.0000000000000D-01  1.0977139022068D+00  3.2168554370279D-01
92  9.1000000000000D-01  1.1212440540087D+00  2.8564550278445D-01
93  9.2000000000000D-01  1.1441052484274D+00  2.4986147775886D-01
94  9.3000000000000D-01  1.1662409793615D+00  2.1438818787481D-01
95  9.4000000000000D-01  1.1875952605545D+00  1.7927954661925D-01
96  9.5000000000000D-01  1.2081128051109D+00  1.4458854914186D-01
97  9.6000000000000D-01  1.2277392068407D+00  1.1036716057810D-01
98  9.7000000000000D-01  1.2464211227883D+00  7.6666205583589D-02
99  9.8000000000000D-01  1.2641064562785D+00  4.3535259396671D-02
100  9.9000000000000D-01  1.2807445397990D+00  1.1022540749081D-02
101  1.0000000000000D+00  1.2962863170191D+00 -2.0825193053289D-02
102  1.0100000000000D+00  1.3106845232352D+00 -5.1962748556793D-02
103  1.0200000000000D+00  1.3238938635231D+00 -8.2346595770963D-02
104  1.0300000000000D+00  1.3358711878690D+00 -1.1193496464281D-01
105  1.0400000000000D+00  1.3465756625484D+00 -1.4068793807598D-01
106  1.0500000000000D+00  1.3559689370214D+00 -1.6856754117994D-01
107  1.0600000000000D+00  1.3640153056121D+00 -1.9553782643958D-01
108  1.0700000000000D+00  1.3706818632496D+00 -2.2156495450196D-01
109  1.0800000000000D+00  1.3759386545505D+00 -2.4661727028379D-01
110  1.0900000000000D+00  1.3797588155393D+00 -2.7066537411289D-01
111  1.1000000000000D+00  1.3821187073137D+00 -2.9368218762617D-01
112  1.1100000000000D+00  1.3829980409824D+00 -3.1564301415845D-01
113  1.1200000000000D+00  1.3823799932204D+00 -3.3652559336807D-01
114  1.1300000000000D+00  1.3802513118126D+00 -3.5631014985874D-01
115  1.1400000000000D+00  1.3766024105814D+00 -3.7497943557271D-01
116  1.1500000000000D+00  1.3714274531286D+00 -3.9251876574575D-01
117  1.1600000000000D+00  1.3647244248446D+00 -4.0891604823022D-01
118  1.1700000000000D+00  1.3564951926818D+00 -4.2416180601051D-01
119  1.1800000000000D+00  1.3467455522210D+00 -4.3824919275500D-01
120  1.1900000000000D+00  1.3354852616092D+00 -4.5117400126994D-01
121  1.2000000000000D+00  1.3227280619714D+00 -4.6293466473331D-01
122  1.2100000000000D+00  1.3084916839602D+00 -4.7353225061717D-01
123  1.2200000000000D+00  1.2927978401524D+00 -4.8297044722574D-01
124  1.2300000000000D+00  1.2756722030403D+00 -4.9125554279602D-01
125  1.2400000000000D+00  1.2571443684150D+00 -4.9839639713075D-01
126  1.2500000000000D+00  1.2372478040091D+00 -5.0440440576363D-01
127  1.2600000000000D+00  1.2160197833025D+00 -5.0929345667507D-01
128  1.2700000000000D+00  1.1935013044343D+00 -5.1307987959298D-01
129  1.2800000000000D+00  1.1697369942590D+00 -5.1578238795579D-01
130  1.2900000000000D+00  1.1447749976112D+00 -5.1742201362612D-01
131  1.3000000000000D+00  1.1186668518783D+00 -5.1802203445904D-01
132  1.3100000000000D+00  1.0914673470951D+00 -5.1760789487871D-01
133  1.3200000000000D+00  1.0632343717790D+00 -5.1620711961801D-01
134  1.3300000000000D+00  1.0340287447716D+00 -5.1384922079815D-01
135  1.3400000000000D+00  1.0039140334745D+00 -5.1056559857428D-01
136  1.3500000000000D+00  9.7295635883068D-01 -5.0638943556008D-01
137  1.3600000000000D+00  9.4122418750365D-01 -5.0135558528502D-01
138  1.3700000000000D+00  9.0878811178743D-01 -4.9550045497227D-01
139  1.3800000000000D+00  8.7572061771965D-01 -4.8886188289960D-01
140  1.3900000000000D+00  8.4209584204855D-01 -4.8147901067953D-01
141  1.4000000000000D+00  8.0798931866539D-01 -4.7339215077741D-01
142  1.4100000000000D+00  7.7347771514399D-01 -4.6464264960016D-01
143  1.4200000000000D+00  7.3863856016684D-01 -4.5527274654123D-01
144  1.4300000000000D+00  7.0354996251003D-01 -4.4532542932637D-01
145  1.4400000000000D+00  6.6829032242453D-01 -4.3484428606858D-01
146  1.4500000000000D+00  6.3293803620524D-01 -4.2387335442165D-01
147  1.4600000000000D+00  5.9757119476526D-01 -4.1245696823389D-01
148  1.4700000000000D+00  5.6226727712503D-01 -4.0063960213350D-01
149  1.4800000000000D+00  5.2710283963437D-01 -3.8846571444807D-01
150  1.4900000000000D+00  4.9215320188126D-01 -3.7597958890384D-01
151  1.5000000000000D+00  4.5749213015259D-01 -3.6322517552151D-01
152  1.5100000000000D+00  4.2319151939170D-01 -3.5024593115176D-01
153  1.5200000000000D+00  3.8932107455081D-01 -3.3708466007115D-01
154  1.5300000000000D+00  3.5594799228865D-01 -3.2378335508709D-01
155  1.5400000000000D+00  3.2313664388560D-01 -3.1038303955067D-01
156  1.5500000000000D+00  2.9094826035522D-01 -2.9692361074057D-01
157  1.5600000000000D+00  2.5944061848444D-01 -2.8344368439416D-01
158  1.5700000000000D+00  2.2866773922512D-01 -2.6998044380516D-01
159  1.5800000000000D+00  1.9867956514314D-01 -2.5656948394791D-01
160  1.5900000000000D+00  1.6952171684261D-01 -2.4324468045353D-01
161  1.6000000000000D+00  1.4123524981442D-01 -2.3003805833572D-01
162  1.6100000000000D+00  1.1385591225812D-01 -2.1697952193000D-01
163  1.6200000000000D+00  8.7414460110704D-02 -2.0409688764334D-01
164  1.6300000000000D+00  6.1937711637255D-02 -1.9141612117153D-01
165  1.6400000000000D+00  3.7449320951581D-02 -1.7896152702383D-01
166  1.6500000000000D+00  1.3971008057569D-02 -1.6675608539935D-01
167  1.6600000000000D+00 -8.4773573034024D-03 -1.5482146795217D-01
168  1.6700000000000D+00 -2.9878241228141D-02 -1.4317790440415D-01
169  1.6800000000000D+00 -5.0216407362266D-02 -1.3184419155766D-01
170  1.6900000000000D+00 -6.9478981409965D-02 -1.2083767516486D-01
171  1.7000000000000D+00 -8.7655523725412D-02 -1.1017423164638D-01
172  1.7100000000000D+00 -1.0473807843429D-01 -9.9868257361992D-02
173  1.7200000000000D+00 -1.2072122025326D-01 -8.9932659894127D-02
174  1.7300000000000D+00 -1.3560208970466D-01 -8.0378853850215D-02
175  1.7400000000000D+00 -1.4938041782532D-01 -7.1216760955068D-02
176  1.7500000000000D+00 -1.6205854091032D-01 -6.2454814231806D-02
177  1.7600000000000D+00 -1.7364140539846D-01 -5.4099966269692D-02
178  1.7700000000000D+00 -1.8413656297884D-01 -4.6157701516424D-02
179  1.7800000000000D+00 -1.9355415563576D-01 -3.8632052688801D-02
180  1.7900000000000D+00 -2.0190689092390D-01 -3.1525621183122D-02
181  1.8000000000000D+00 -2.0921000760978D-01 -2.4839601426813D-02
182  1.8100000000000D+00 -2.1548123174552D-01 -1.8573809135135D-02
183  1.8200000000000D+00 -2.2074072356648D-01 -1.2726713303389D-02
184  1.8300000000000D+00 -2.2501101511753D-01 -7.2954719686815D-03
185  1.8400000000000D+00 -2.2831693933610D-01 -2.2759714317471D-03
186  1.8500000000000D+00 -2.3068555027686D-01  2.3371309359257D-03
187  1.8600000000000D+00 -2.3214603553000D-01  6.5503607439119D-03
188  1.8700000000000D+00 -2.3272962037573D-01  1.0371377309623D-02
189  1.8800000000000D+00 -2.3246946482313D-01  1.3808921543525D-02
190  1.8900000000000D+00 -2.3140055328640D-01  1.6872760897326D-02
191  1.9000000000000D+00 -2.2955957777444D-01  1.9573631744455D-02
192  1.9100000000000D+00 -2.2698481477946D-01  2.1923179277619D-02
193  1.9200000000000D+00 -2.2371599637970D-01  2.3933895143141D-02
194  1.9300000000000D+00 -2.1979417616064D-01  2.5619053068910D-02
195  1.9400000000000D+00 -2.1526159016196D-01  2.6992642580879D-02
196  1.9500000000000D+00 -2.1016151375481D-01  2.8069301184401D-02
197  1.9600000000000D+00 -2.0453811452631D-01  2.8864245056546D-02
198  1.9700000000000D+00 -1.9843630208407D-01  2.9393198624511D-02
199  1.9800000000000D+00 -1.9190157506524D-01  2.9672323162575D-02
200  1.9900000000000D+00 -1.8497986599790D-01  2.9718144676014D-02
201  2.0000000000000D+00 -1.7771738456707D-01  2.9547481306876D-02
202  2.0100000000000D+00 -1.7016045978778D-01  2.9177370481008D-02
203  2.0200000000000D+00 -1.6235538166614D-01  2.8624996027963D-02
204  2.0300000000000D+00 -1.5434824294166D-01  2.7907615543304D-02
205  2.0400000000000D+00 -1.4618478135857D-01  2.7042488163002D-02
206  2.0500000000000D+00 -1.3791022313490D-01  2.6046803044352D-02
207  2.0600000000000D+00 -1.2956912813253D-01  2.4937608761398D-02
208  2.0700000000000D+00 -1.2120523713227D-01  2.3731743776364D-02
209  2.0800000000000D+00 -1.1286132210530D-01  2.2445768377401D-02
210  2.0900000000000D+00 -1.0457903948140D-01  2.1095898061302D-02
211  2.1000000000000D+00 -9.6398787450619D-02  1.9697938811862D-02
212  2.1100000000000D+00 -8.8359567505297D-02  1.8267224350697D-02
213  2.1200000000000D+00 -8.0498850558111D-02  1.6818555496285D-02
214  2.1300000000000D+00 -7.2852448776401D-02  1.5366142119386D-02
215  2.1400000000000D+00 -6.5454392576092D-02  1.3923547443059D-02
216  2.1500000000000D+00 -5.8336814201928D-02  1.2503635295288D-02
217  2.1600000000000D+00 -5.1529837832627D-02  1.1118520280097D-02
218  2.1700000000000D+00 -4.5061476188621D-02  9.7795208519632D-03
219  2.1800000000000D+00 -3.8957535345879D-02  8.4971160117679D-03
220  2.1900000000000D+00 -3.3241526399709D-02  7.2809050448039D-03
221  2.2000000000000D+00 -2.7934585594175D-02  6.1395709785535D-03
222  2.2100000000000D+00 -2.3055403085593D-02  5.0808478263528D-03
223  2.2200000000000D+00 -1.8620159232157D-02  4.1114911492552D-03
224  2.2300000000000D+00 -1.4643679528170D-02  3.2375115917379D-03
225  2.2400000000000D+00 -1.1137069215413D-02  2.4636571214347D-03
226  2.2500000000000D+00 -8.1029781578967D-03  1.7923903235682D-03
227  2.2600000000000D+00 -5.5372369542530D-03  1.2241728019446D-03
228  2.2700000000000D+00 -3.4637254873920D-03  7.6511937696595D-04
229  2.2800000000000D+00 -1.9068531600306D-03  4.2097026166322D-04
230  2.2900000000000D+00 -8.7823451854532D-04  1.9436603937559D-04
231  2.3000000000000D+00 -2.8399113697406D-04  6.3963951877635D-05
232  2.3100000000000D+00 -1.2273614143860D-05  4.4087629553548D-06
233  2.3200000000000D+00  5.9636056974450D-05 -1.1915317427802D-05
234  2.3300000000000D+00  3.0160195273413D-05 -6.2057564063391D-06
235  2.3400000000000D+00 -1.2089519733020D-05  2.5326956152334D-06
236  2.3500000000000D+00 -2.2175757336653D-05  4.6701819496587D-06
237  2.3600000000000D+00 -8.3158415966137D-06  1.7563507719682D-06
238  2.3700000000000D+00  2.6850843317152D-06 -5.5992205773056D-07
239  2.3800000000000D+00  3.7553358377591D-06 -7.8566531382592D-07
240  2.3900000000000D+00  8.9685685511644D-07 -1.8808579477359D-07
241  2.4000000000000D+00  1.0501433714968D-07 -2.7122030810937D-08
242  2.4100000000000D+00  1.1695100979474D-07 -3.0204912749216D-08
243  2.4200000000000D+00  1.1951157693191D-08 -3.0866229886217D-09
244  2.4300000000000D+00  0.0000000000000D+00  0.0000000000000D+00
245  2.4400000000000D+00  0.0000000000000D+00  0.0000000000000D+00
246  2.4500000000000D+00  0.0000000000000D+00  0.0000000000000D+00
247  2.4600000000000D+00  0.0000000000000D+00  0.0000000000000D+00
248  2.4700000000000D+00  0.0000000000000D+00  0.0000000000000D+00
249  2.4800000000000D+00  0.0000000000000D+00  0.0000000000000D+00
250  2.4900000000000D+00  0.0000000000000D+00  0.0000000000000D+00
251  2.5000000000000D+00  0.0000000000000D+00  0.0000000000000D+00
252  2.5100000000000D+00  0.0000000000000D+00  0.0000000000000D+00
253  2.5200000000000D+00  0.0000000000000D+00  0.0000000000000D+00
254  2.5300000000000D+00  0.0000000000000D+00  0.0000000000000D+00
255  2.5400000000000D+00  0.0000000000000D+00  0.0000000000000D+00
256  2.5500000000000D+00  0.0000000000000D+00  0.0000000000000D+00
257  2.5600000000000D+00  0.0000000000000D+00  0.0000000000000D+00
258  2.5700000000000D+00  0.0000000000000D+00  0.0000000000000D+00
259  2.5800000000000D+00  0.0000000000000D+00  0.0000000000000D+00
260  2.5900000000000D+00  0.0000000000000D+00  0.0000000000000D+00
261  2.6000000000000D+00  0.0000000000000D+00  0.0000000000000D+00
262  2.6100000000000D+00  0.0000000000000D+00  0.0000000000000D+00
263  2.6200000000000D+00  0.0000000000000D+00  0.0000000000000D+00
264  2.6300000000000D+00  0.0000000000000D+00  0.0000000000000D+00
265  2.6400000000000D+00  0.0000000000000D+00  0.0000000000000D+00
266  2.6500000000000D+00  0.0000000000000D+00  0.0000000000000D+00
267  2.6600000000000D+00  0.0000000000000D+00  0.0000000000000D+00
268  2.6700000000000D+00  0.0000000000000D+00  0.0000000000000D+00
269  2.6800000000000D+00  0.0000000000000D+00  0.0000000000000D+00
270  2.6900000000000D+00  0.0000000000000D+00  0.0000000000000D+00
271  2.7000000000000D+00  0.0000000000000D+00  0.0000000000000D+00
272  2.7100000000000D+00  0.0000000000000D+00  0.0000000000000D+00
273  2.7200000000000D+00  0.0000000000000D+00  0.0000000000000D+00
274  2.7300000000000D+00  0.0000000000000D+00  0.0000000000000D+00
275  2.7400000000000D+00  0.0000000000000D+00  0.0000000000000D+00
276  2.7500000000000D+00  0.0000000000000D+00  0.0000000000000D+00
277  2.7600000000000D+00  0.0000000000000D+00  0.0000000000000D+00
278  2.7700000000000D+00  0.0000000000000D+00  0.0000000000000D+00
279  2.7800000000000D+00  0.0000000000000D+00  0.0000000000000D+00
280  2.7900000000000D+00  0.0000000000000D+00  0.0000000000000D+00
281  2.8000000000000D+00  0.0000000000000D+00  0.0000000000000D+00
282  2.8100000000000D+00  0.0000000000000D+00  0.0000000000000D+00
283  2.8200000000000D+00  0.0000000000000D+00  0.0000000000000D+00
284  2.8300000000000D+00  0.0000000000000D+00  0.0000000000000D+00
285  2.8400000000000D+00  0.0000000000000D+00  0.0000000000000D+00
286  2.8500000000000D+00  0.0000000000000D+00  0.0000000000000D+00
287  2.8600000000000D+00  0.0000000000000D+00  0.0000000000000D+00
288  2.8700000000000D+00  0.0000000000000D+00  0.0000000000000D+00
289  2.8800000000000D+00  0.0000000000000D+00  0.0000000000000D+00
290  2.8900000000000D+00  0.0000000000000D+00  0.0000000000000D+00
291  2.9000000000000D+00  0.0000000000000D+00  0.0000000000000D+00
292  2.9100000000000D+00  0.0000000000000D+00  0.0000000000000D+00
293  2.9200000000000D+00  0.0000000000000D+00  0.0000000000000D+00
294  2.9300000000000D+00  0.0000000000000D+00  0.0000000000000D+00
295  2.9400000000000D+00  0.0000000000000D+00  0.0000000000000D+00
296  2.9500000000000D+00  0.0000000000000D+00  0.0000000000000D+00
297  2.9600000000000D+00  0.0000000000000D+00  0.0000000000000D+00
298  2.9700000000000D+00  0.0000000000000D+00  0.0000000000000D+00
299  2.9800000000000D+00  0.0000000000000D+00  0.0000000000000D+00
300  2.9900000000000D+00  0.0000000000000D+00  0.0000000000000D+00
301  3.0000000000000D+00  0.0000000000000D+00  0.0000000000000D+00
302  3.0100000000000D+00  0.0000000000000D+00  0.0000000000000D+00
303  3.0200000000000D+00  0.0000000000000D+00  0.0000000000000D+00
304  3.0300000000000D+00  0.0000000000000D+00  0.0000000000000D+00
305  3.0400000000000D+00  0.0000000000000D+00  0.0000000000000D+00
306  3.0500000000000D+00  0.0000000000000D+00  0.0000000000000D+00
307  3.0600000000000D+00  0.0000000000000D+00  0.0000000000000D+00
308  3.0700000000000D+00  0.0000000000000D+00  0.0000000000000D+00
309  3.0800000000000D+00  0.0000000000000D+00  0.0000000000000D+00
310  3.0900000000000D+00  0.0000000000000D+00  0.0000000000000D+00
311  3.1000000000000D+00  0.0000000000000D+00  0.0000000000000D+00
312  3.1100000000000D+00  0.0000000000000D+00  0.0000000000000D+00
313  3.1200000000000D+00  0.0000000000000D+00  0.0000000000000D+00
314  3.1300000000000D+00  0.0000000000000D+00  0.0000000000000D+00
315  3.1400000000000D+00  0.0000000000000D+00  0.0000000000000D+00
316  3.1500000000000D+00  0.0000000000000D+00  0.0000000000000D+00
317  3.1600000000000D+00  0.0000000000000D+00  0.0000000000000D+00
318  3.1700000000000D+00  0.0000000000000D+00  0.0000000000000D+00
319  3.1800000000000D+00  0.0000000000000D+00  0.0000000000000D+00
320  3.1900000000000D+00  0.0000000000000D+00  0.0000000000000D+00
321  3.2000000000000D+00  0.0000000000000D+00  0.0000000000000D+00
322  3.2100000000000D+00  0.0000000000000D+00  0.0000000000000D+00
323  3.2200000000000D+00  0.0000000000000D+00  0.0000000000000D+00
324  3.2300000000000D+00  0.0000000000000D+00  0.0000000000000D+00
325  3.2400000000000D+00  0.0000000000000D+00  0.0000000000000D+00
326  3.2500000000000D+00  0.0000000000000D+00  0.0000000000000D+00
327  3.2600000000000D+00  0.0000000000000D+00  0.0000000000000D+00
328  3.2700000000000D+00  0.0000000000000D+00  0.0000000000000D+00
329  3.2800000000000D+00  0.0000000000000D+00  0.0000000000000D+00
330  3.2900000000000D+00  0.0000000000000D+00  0.0000000000000D+00
331  3.3000000000000D+00  0.0000000000000D+00  0.0000000000000D+00
332  3.3100000000000D+00  0.0000000000000D+00  0.0000000000000D+00
333  3.3200000000000D+00  0.0000000000000D+00  0.0000000000000D+00
334  3.3300000000000D+00  0.0000000000000D+00  0.0000000000000D+00
335  3.3400000000000D+00  0.0000000000000D+00  0.0000000000000D+00
336  3.3500000000000D+00  0.0000000000000D+00  0.0000000000000D+00
337  3.3600000000000D+00  0.0000000000000D+00  0.0000000000000D+00
338  3.3700000000000D+00  0.0000000000000D+00  0.0000000000000D+00
339  3.3800000000000D+00  0.0000000000000D+00  0.0000000000000D+00
340  3.3900000000000D+00  0.0000000000000D+00  0.0000000000000D+00
341  3.4000000000000D+00  0.0000000000000D+00  0.0000000000000D+00
342  3.4100000000000D+00  0.0000000000000D+00  0.0000000000000D+00
343  3.4200000000000D+00  0.0000000000000D+00  0.0000000000000D+00
344  3.4300000000000D+00  0.0000000000000D+00  0.0000000000000D+00
345  3.4400000000000D+00  0.0000000000000D+00  0.0000000000000D+00
346  3.4500000000000D+00  0.0000000000000D+00  0.0000000000000D+00
347  3.4600000000000D+00  0.0000000000000D+00  0.0000000000000D+00
348  3.4700000000000D+00  0.0000000000000D+00  0.0000000000000D+00
349  3.4800000000000D+00  0.0000000000000D+00  0.0000000000000D+00
350  3.4900000000000D+00  0.0000000000000D+00  0.0000000000000D+00
351  3.5000000000000D+00  0.0000000000000D+00  0.0000000000000D+00
352  3.5100000000000D+00  0.0000000000000D+00  0.0000000000000D+00
353  3.5200000000000D+00  0.0000000000000D+00  0.0000000000000D+00
354  3.5300000000000D+00  0.0000000000000D+00  0.0000000000000D+00
355  3.5400000000000D+00  0.0000000000000D+00  0.0000000000000D+00
356  3.5500000000000D+00  0.0000000000000D+00  0.0000000000000D+00
357  3.5600000000000D+00  0.0000000000000D+00  0.0000000000000D+00
358  3.5700000000000D+00  0.0000000000000D+00  0.0000000000000D+00
359  3.5800000000000D+00  0.0000000000000D+00  0.0000000000000D+00
360  3.5900000000000D+00  0.0000000000000D+00  0.0000000000000D+00
361  3.6000000000000D+00  0.0000000000000D+00  0.0000000000000D+00
362  3.6100000000000D+00  0.0000000000000D+00  0.0000000000000D+00
363  3.6200000000000D+00  0.0000000000000D+00  0.0000000000000D+00
364  3.6300000000000D+00  0.0000000000000D+00  0.0000000000000D+00
365  3.6400000000000D+00  0.0000000000000D+00  0.0000000000000D+00
366  3.6500000000000D+00  0.0000000000000D+00  0.0000000000000D+00
367  3.6600000000000D+00  0.0000000000000D+00  0.0000000000000D+00
368  3.6700000000000D+00  0.0000000000000D+00  0.0000000000000D+00
369  3.6800000000000D+00  0.0000000000000D+00  0.0000000000000D+00
370  3.6900000000000D+00  0.0000000000000D+00  0.0000000000000D+00
371  3.7000000000000D+00  0.0000000000000D+00  0.0000000000000D+00
372  3.7100000000000D+00  0.0000000000000D+00  0.0000000000000D+00
373  3.7200000000000D+00  0.0000000000000D+00  0.0000000000000D+00
374  3.7300000000000D+00  0.0000000000000D+00  0.0000000000000D+00
375  3.7400000000000D+00  0.0000000000000D+00  0.0000000000000D+00
376  3.7500000000000D+00  0.0000000000000D+00  0.0000000000000D+00
377  3.7600000000000D+00  0.0000000000000D+00  0.0000000000000D+00
378  3.7700000000000D+00  0.0000000000000D+00  0.0000000000000D+00
379  3.7800000000000D+00  0.0000000000000D+00  0.0000000000000D+00
380  3.7900000000000D+00  0.0000000000000D+00  0.0000000000000D+00
381  3.8000000000000D+00  0.0000000000000D+00  0.0000000000000D+00
382  3.8100000000000D+00  0.0000000000000D+00  0.0000000000000D+00
383  3.8200000000000D+00  0.0000000000000D+00  0.0000000000000D+00
384  3.8300000000000D+00  0.0000000000000D+00  0.0000000000000D+00
385  3.8400000000000D+00  0.0000000000000D+00  0.0000000000000D+00
386  3.8500000000000D+00  0.0000000000000D+00  0.0000000000000D+00
387  3.8600000000000D+00  0.0000000000000D+00  0.0000000000000D+00
388  3.8700000000000D+00  0.0000000000000D+00  0.0000000000000D+00
389  3.8800000000000D+00  0.0000000000000D+00  0.0000000000000D+00
390  3.8900000000000D+00  0.0000000000000D+00  0.0000000000000D+00
391  3.9000000000000D+00  0.0000000000000D+00  0.0000000000000D+00
392  3.9100000000000D+00  0.0000000000000D+00  0.0000000000000D+00
393  3.9200000000000D+00  0.0000000000000D+00  0.0000000000000D+00
394  3.9300000000000D+00  0.0000000000000D+00  0.0000000000000D+00
395  3.9400000000000D+00  0.0000000000000D+00  0.0000000000000D+00
396  3.9500000000000D+00  0.0000000000000D+00  0.0000000000000D+00
397  3.9600000000000D+00  0.0000000000000D+00  0.0000000000000D+00
398  3.9700000000000D+00  0.0000000000000D+00  0.0000000000000D+00
399  3.9800000000000D+00  0.0000000000000D+00  0.0000000000000D+00
400  3.9900000000000D+00  0.0000000000000D+00  0.0000000000000D+00
401  4.0000000000000D+00  0.0000000000000D+00  0.0000000000000D+00
402  4.0100000000000D+00  0.0000000000000D+00  0.0000000000000D+00
403  4.0200000000000D+00  0.0000000000000D+00  0.0000000000000D+00
404  4.0300000000000D+00  0.0000000000000D+00  0.0000000000000D+00
405  4.0400000000000D+00  0.0000000000000D+00  0.0000000000000D+00
406  4.0500000000000D+00  0.0000000000000D+00  0.0000000000000D+00
407  4.0600000000000D+00  0.0000000000000D+00  0.0000000000000D+00
408  4.0700000000000D+00  0.0000000000000D+00  0.0000000000000D+00
409  4.0800000000000D+00  0.0000000000000D+00  0.0000000000000D+00
410  4.0900000000000D+00  0.0000000000000D+00  0.0000000000000D+00
411  4.1000000000000D+00  0.0000000000000D+00  0.0000000000000D+00
412  4.1100000000000D+00  0.0000000000000D+00  0.0000000000000D+00
413  4.1200000000000D+00  0.0000000000000D+00  0.0000000000000D+00
414  4.1300000000000D+00  0.0000000000000D+00  0.0000000000000D+00
415  4.1400000000000D+00  0.0000000000000D+00  0.0000000000000D+00
416  4.1500000000000D+00  0.0000000000000D+00  0.0000000000000D+00
417  4.1600000000000D+00  0.0000000000000D+00  0.0000000000000D+00
418  4.1700000000000D+00  0.0000000000000D+00  0.0000000000000D+00
419  4.1800000000000D+00  0.0000000000000D+00  0.0000000000000D+00
420  4.1900000000000D+00  0.0000000000000D+00  0.0000000000000D+00
421  4.2000000000000D+00  0.0000000000000D+00  0.0000000000000D+00
422  4.2100000000000D+00  0.0000000000000D+00  0.0000000000000D+00
423  4.2200000000000D+00  0.0000000000000D+00  0.0000000000000D+00
424  4.2300000000000D+00  0.0000000000000D+00  0.0000000000000D+00
425  4.2400000000000D+00  0.0000000000000D+00  0.0000000000000D+00
426  4.2500000000000D+00  0.0000000000000D+00  0.0000000000000D+00
427  4.2600000000000D+00  0.0000000000000D+00  0.0000000000000D+00
428  4.2700000000000D+00  0.0000000000000D+00  0.0000000000000D+00
429  4.2800000000000D+00  0.0000000000000D+00  0.0000000000000D+00
430  4.2900000000000D+00  0.0000000000000D+00  0.0000000000000D+00
431  4.3000000000000D+00  0.0000000000000D+00  0.0000000000000D+00
432  4.3100000000000D+00  0.0000000000000D+00  0.0000000000000D+00
433  4.3200000000000D+00  0.0000000000000D+00  0.0000000000000D+00
434  4.3300000000000D+00  0.0000000000000D+00  0.0000000000000D+00
435  4.3400000000000D+00  0.0000000000000D+00  0.0000000000000D+00
436  4.3500000000000D+00  0.0000000000000D+00  0.0000000000000D+00
437  4.3600000000000D+00  0.0000000000000D+00  0.0000000000000D+00
438  4.3700000000000D+00  0.0000000000000D+00  0.0000000000000D+00
439  4.3800000000000D+00  0.0000000000000D+00  0.0000000000000D+00
440  4.3900000000000D+00  0.0000000000000D+00  0.0000000000000D+00
441  4.4000000000000D+00  0.0000000000000D+00  0.0000000000000D+00
442  4.4100000000000D+00  0.0000000000000D+00  0.0000000000000D+00
443  4.4200000000000D+00  0.0000000000000D+00  0.0000000000000D+00