Tc    ONCVPSP-3.3.0  r_core=   1.40470   1.40470   1.35532
43.0000     15.0000      180430    zatom,zion,pspd
8 -116133   2     4   600     0    pspcod,pspxc,lmax,lloc,mmax,r2well
5.99000000  5.00000000  0.00000000    rchrg fchrg qchrg
2     3     3     0    nproj
3     1           extension_switch
4     3     0    nprojso
0                         1.4540346551827D+00  1.4504417442828D+01
1  0.0000000000000D+00  1.7299121302106D-09 -3.4519342939632D-10
2  1.0000000000000D-02 -3.1611100479666D-02  6.0141033142735D-02
3  2.0000000000000D-02 -6.3045199214220D-02  1.2019229102683D-01
4  3.0000000000000D-02 -9.4126986389240D-02  1.8006426350132D-01
5  4.0000000000000D-02 -1.2468450882654D-01  2.3966796616002D-01
6  5.0000000000000D-02 -1.5455078068873D-01  2.9891519212762D-01
7  6.0000000000000D-02 -1.8356531429886D-01  3.5771875079253D-01
8  7.0000000000000D-02 -2.1157554651205D-01  4.1599268954879D-01
9  8.0000000000000D-02 -2.3843813780593D-01  4.7365249495394D-01
10  9.0000000000000D-02 -2.6402012336888D-01  5.3061527013067D-01
11  1.0000000000000D-01 -2.8819989792830D-01  5.8679988572875D-01
12  1.1000000000000D-01 -3.1086801883632D-01  6.4212710231224D-01
13  1.2000000000000D-01 -3.3192781497611D-01  6.9651966263681D-01
14  1.3000000000000D-01 -3.5129579232081D-01  7.4990235292147D-01
15  1.4000000000000D-01 -3.6890183041796D-01  8.0220203288845D-01
16  1.5000000000000D-01 -3.8468916763239D-01  8.5334763503150D-01
17  1.6000000000000D-01 -3.9861417660300D-01  9.0327013426563D-01
18  1.7000000000000D-01 -4.1064593499722D-01  9.5190248979644D-01
19  1.8000000000000D-01 -4.2076560022203D-01  9.9917956171362D-01
20  1.9000000000000D-01 -4.2896560021621D-01  1.0450380054476D+00
21  2.0000000000000D-01 -4.3524865574626D-01  1.0894161478192D+00
22  2.1000000000000D-01 -4.3962665270531D-01  1.1322538489466D+00
23  2.2000000000000D-01 -4.4211938571666D-01  1.1734923547456D+00
24  2.3000000000000D-01 -4.4275319682460D-01  1.2130741451483D+00
25  2.4000000000000D-01 -4.4155953516860D-01  1.2509427834774D+00
26  2.5000000000000D-01 -4.3857346524620D-01  1.2870427726245D+00
27  2.6000000000000D-01 -4.3383215263933D-01  1.3213194237988D+00
28  2.7000000000000D-01 -4.2737335688246D-01  1.3537187436225D+00
29  2.8000000000000D-01 -4.1923396146880D-01  1.3841873452535D+00
30  2.9000000000000D-01 -4.0944857080812D-01  1.4126723890086D+00
31  3.0000000000000D-01 -3.9804820326336D-01  1.4391215576475D+00
32  3.1000000000000D-01 -3.8505910820275D-01  1.4634830710526D+00
33  3.2000000000000D-01 -3.7050173332180D-01  1.4857057445156D+00
34  3.3000000000000D-01 -3.5438986633199D-01  1.5057390942142D+00
35  3.4000000000000D-01 -3.3672997250570D-01  1.5235334927480D+00
36  3.5000000000000D-01 -3.1752074654457D-01  1.5390403768024D+00
37  3.6000000000000D-01 -2.9675289383924D-01  1.5522125081401D+00
38  3.7000000000000D-01 -2.7440915246125D-01  1.5630042881868D+00
39  3.8000000000000D-01 -2.5046456322399D-01  1.5713721255018D+00
40  3.9000000000000D-01 -2.2488699092967D-01  1.5772748544131D+00
41  4.0000000000000D-01 -1.9763789554384D-01  1.5806742020685D+00
42  4.1000000000000D-01 -1.6867334757778D-01  1.5815353001286D+00
43  4.2000000000000D-01 -1.3794527747863D-01  1.5798272363096D+00
44  4.3000000000000D-01 -1.0540294440281D-01  1.5755236400095D+00
45  4.4000000000000D-01 -7.0994605447657D-02  1.5686032953147D+00
46  4.5000000000000D-01 -3.4669362316284D-02  1.5590507738231D+00
47  4.6000000000000D-01  3.6208414432568D-03  1.5468570789337D+00
48  4.7000000000000D-01  4.3919102978794D-02  1.5320202925700D+00
49  4.8000000000000D-01  8.6261355906283D-02  1.5145462147283D+00
50  4.9000000000000D-01  1.3067411540113D-01  1.4944489857949D+00
51  5.0000000000000D-01  1.7717221082042D-01  1.4717516812642D+00
52  5.1000000000000D-01  2.2575654563246D-01  1.4464868683201D+00
53  5.2000000000000D-01  2.7641192539655D-01  1.4186971137350D+00
54  5.3000000000000D-01  3.2910499487405D-01  1.3884354326822D+00
55  5.4000000000000D-01  3.8378232503994D-01  1.3557656683718D+00
56  5.5000000000000D-01  4.4036868979272D-01  1.3207627928883D+00
57  5.6000000000000D-01  4.9876557052345D-01  1.2835131202465D+00
58  5.7000000000000D-01  5.5884992442108D-01  1.2441144234715D+00
59  5.8000000000000D-01  6.2047324946321D-01  1.2026759484550D+00
60  5.9000000000000D-01  6.8346097552621D-01  1.1593183184230D+00
61  6.0000000000000D-01  7.4761220694819D-01  1.1141733240674D+00
62  6.1000000000000D-01  8.1269983728883D-01  1.0673835957227D+00
63  6.2000000000000D-01  8.7847105196701D-01  1.0191021554050D+00
64  6.3000000000000D-01  9.4464822901114D-01  9.6949184804016D-01
65  6.4000000000000D-01  1.0109302424210D+00  9.1872465278425D-01
66  6.5000000000000D-01  1.0769941666316D+00  8.6698087695784D-01
67  6.6000000000000D-01  1.1424973744630D+00  8.1444823674752D-01
68  6.7000000000000D-01  1.2070800147643D+00  7.6132083045533D-01
69  6.8000000000000D-01  1.2703678498160D+00  7.0779801168029D-01
70  6.9000000000000D-01  1.3319754265660D+00  6.5408317135957D-01
71  7.0000000000000D-01  1.3915095500337D+00  6.0038243906213D-01
72  7.1000000000000D-01  1.4485730217637D+00  5.4690331529973D-01
73  7.2000000000000D-01  1.5027686012157D+00  4.9385324786142D-01
74  7.3000000000000D-01  1.5537031434734D+00  4.4143816627672D-01
75  7.4000000000000D-01  1.6009918627327D+00  3.8986098944948D-01
76  7.5000000000000D-01  1.6442626677814D+00  3.3932012225606D-01
77  7.6000000000000D-01  1.6831605131323D+00  2.9000795746275D-01
78  7.7000000000000D-01  1.7173517077219D+00  2.4210939966321D-01
79  7.8000000000000D-01  1.7465281221379D+00  1.9580042806906D-01
80  7.9000000000000D-01  1.7704112352486D+00  1.5124671489168D-01
81  8.0000000000000D-01  1.7887559618788D+00  1.0860231573139D-01
82  8.1000000000000D-01  1.8013542048194D+00  6.8008447839813D-02
83  8.2000000000000D-01  1.8080380769694D+00  2.9592371346935D-02
84  8.3000000000000D-01  1.8086827427513D+00 -6.5336124479436D-03
85  8.4000000000000D-01  1.8032088320965D+00 -4.0273032820391D-02
86  8.5000000000000D-01  1.7915843852007D+00 -7.1545979891451D-02
87  8.6000000000000D-01  1.7738262918537D+00 -1.0028968348402D-01
88  8.7000000000000D-01  1.7500011953616D+00 -1.2645893234903D-01
89  8.8000000000000D-01  1.7202258378421D+00 -1.5002632740419D-01
90  8.9000000000000D-01  1.6846668308615D+00 -1.7098236459555D-01
91  9.0000000000000D-01  1.6435398429250D+00 -1.8933534504235D-01
92  9.1000000000000D-01  1.5971082030884D+00 -2.0511111222866D-01
93  9.2000000000000D-01  1.5456809278416D+00 -2.1835261813297D-01
94  9.3000000000000D-01  1.4896101862883D+00 -2.2911932230708D-01
95  9.4000000000000D-01  1.4292882263953D+00 -2.3748642999850D-01
96  9.5000000000000D-01  1.3651437925963D+00 -2.4354397742507D-01
97  9.6000000000000D-01  1.2976380721806D+00 -2.4739577422652D-01
98  9.7000000000000D-01  1.2272602145711D+00 -2.4915821490489D-01
99  9.8000000000000D-01  1.1545224737055D+00 -2.4895897270462D-01
100  9.9000000000000D-01  1.0799550291335D+00 -2.4693559083129D-01
101  1.0000000000000D+00  1.0041005460494D+00 -2.4323398714961D-01
102  1.0100000000000D+00  9.2750853838692D-01 -2.3800688955752D-01
103  1.0200000000000D+00  8.5072960187194D-01 -2.3141221999292D-01
104  1.0300000000000D+00  7.7430958589643D-01 -2.2361144557799D-01
105  1.0400000000000D+00  6.9878377398865D-01 -2.1476791568102D-01
106  1.0500000000000D+00  6.2467114240651D-01 -2.0504520364887D-01
107  1.0600000000000D+00  5.5246876548894D-01 -1.9460547176410D-01
108  1.0700000000000D+00  4.8264643392662D-01 -1.8360787737970D-01
109  1.0800000000000D+00  4.1564154909253D-01 -1.7220703743180D-01
110  1.0900000000000D+00  3.5185435236876D-01 -1.6055156747672D-01
111  1.1000000000000D+00  2.9164354304839D-01 -1.4878271004370D-01
112  1.1100000000000D+00  2.3532233345845D-01 -1.3703306584498D-01
113  1.1200000000000D+00  1.8315498200418D-01 -1.2542543936254D-01
114  1.1300000000000D+00  1.3535383860153D-01 -1.1407180874077D-01
115  1.1400000000000D+00  9.2076927809540D-02 -1.0307242757387D-01
116  1.1500000000000D+00  5.3426089224251D-02 -9.2515064706048D-02
117  1.1600000000000D+00  1.9445683089928D-02 -8.2474385187347D-02
118  1.1700000000000D+00 -9.8781454296907D-03 -7.3011472335324D-02
119  1.1800000000000D+00 -3.4617650103478D-02 -6.4173489651496D-02
120  1.1900000000000D+00 -5.4902863992202D-02 -5.5993532858269D-02
121  1.2000000000000D+00 -7.0921318831949D-02 -4.8490448399446D-02
122  1.2100000000000D+00 -8.2916373159511D-02 -4.1668956146855D-02
123  1.2200000000000D+00 -9.1176651803066D-02 -3.5521461898458D-02
124  1.2300000000000D+00 -9.6024032924919D-02 -3.0030321140412D-02
125  1.2400000000000D+00 -9.7802977646792D-02 -2.5169975771052D-02
126  1.2500000000000D+00 -9.6876983371799D-02 -2.0907835227799D-02
127  1.2600000000000D+00 -9.3622983471550D-02 -1.7205554879650D-02
128  1.2700000000000D+00 -8.8425876163167D-02 -1.4020310644046D-02
129  1.2800000000000D+00 -8.1672929946968D-02 -1.1306112286667D-02
130  1.2900000000000D+00 -7.3748214960310D-02 -9.0151214532009D-03
131  1.3000000000000D+00 -6.5027089978701D-02 -7.0989635280035D-03
132  1.3100000000000D+00 -5.5870829456765D-02 -5.5100124499103D-03
133  1.3200000000000D+00 -4.6621463417452D-02 -4.2026296639544D-03
134  1.3300000000000D+00 -3.7596898692161D-02 -3.1343396641287D-03
135  1.3400000000000D+00 -2.9086390325926D-02 -2.2669244654955D-03
136  1.3500000000000D+00 -2.1346427167296D-02 -1.5674205393474D-03
137  1.3600000000000D+00 -1.4600724134209D-02 -1.0091517971769D-03
138  1.3700000000000D+00 -9.0206325392016D-03 -5.7183036537901D-04
139  1.3800000000000D+00 -4.7171081063344D-03 -2.4299787980824D-04
140  1.3900000000000D+00 -1.9181601183623D-03 -1.8294947314367D-05
141  1.4000000000000D+00 -5.9335022157117D-04  9.7908316582230D-05
142  1.4100000000000D+00 -1.2492917211219D-04  8.6762797152888D-05
143  1.4200000000000D+00 -4.8004634148206D-06  1.0273200936052D-05
144  1.4300000000000D+00  1.3950209524633D-06 -1.4067651852795D-05
145  1.4400000000000D+00 -6.5094159964209D-07  9.4827294419748D-07
146  1.4500000000000D+00 -1.3615303526833D-06  2.5683666621451D-06
147  1.4600000000000D+00  6.5323898751980D-07 -2.2926010503207D-07
148  1.4700000000000D+00  4.7690563947289D-07 -1.6737432866808D-07
149  1.4800000000000D+00  0.0000000000000D+00  0.0000000000000D+00
150  1.4900000000000D+00  0.0000000000000D+00  0.0000000000000D+00
151  1.5000000000000D+00  0.0000000000000D+00  0.0000000000000D+00
152  1.5100000000000D+00  0.0000000000000D+00  0.0000000000000D+00
153  1.5200000000000D+00  0.0000000000000D+00  0.0000000000000D+00
154  1.5300000000000D+00  0.0000000000000D+00  0.0000000000000D+00
155  1.5400000000000D+00  0.0000000000000D+00  0.0000000000000D+00
156  1.5500000000000D+00  0.0000000000000D+00  0.0000000000000D+00
157  1.5600000000000D+00  0.0000000000000D+00  0.0000000000000D+00
158  1.5700000000000D+00  0.0000000000000D+00  0.0000000000000D+00
159  1.5800000000000D+00  0.0000000000000D+00  0.0000000000000D+00
160  1.5900000000000D+00  0.0000000000000D+00  0.0000000000000D+00
161  1.6000000000000D+00  0.0000000000000D+00  0.0000000000000D+00
162  1.6100000000000D+00  0.0000000000000D+00  0.0000000000000D+00
163  1.6200000000000D+00  0.0000000000000D+00  0.0000000000000D+00
164  1.6300000000000D+00  0.0000000000000D+00  0.0000000000000D+00
165  1.6400000000000D+00  0.0000000000000D+00  0.0000000000000D+00
166  1.6500000000000D+00  0.0000000000000D+00  0.0000000000000D+00
167  1.6600000000000D+00  0.0000000000000D+00  0.0000000000000D+00
168  1.6700000000000D+00  0.0000000000000D+00  0.0000000000000D+00
169  1.6800000000000D+00  0.0000000000000D+00  0.0000000000000D+00
170  1.6900000000000D+00  0.0000000000000D+00  0.0000000000000D+00
171  1.7000000000000D+00  0.0000000000000D+00  0.0000000000000D+00
172  1.7100000000000D+00  0.0000000000000D+00  0.0000000000000D+00
173  1.7200000000000D+00  0.0000000000000D+00  0.0000000000000D+00
174  1.7300000000000D+00  0.0000000000000D+00  0.0000000000000D+00
175  1.7400000000000D+00  0.0000000000000D+00  0.0000000000000D+00
176  1.7500000000000D+00  0.0000000000000D+00  0.0000000000000D+00
177  1.7600000000000D+00  0.0000000000000D+00  0.0000000000000D+00
178  1.7700000000000D+00  0.0000000000000D+00  0.0000000000000D+00
179  1.7800000000000D+00  0.0000000000000D+00  0.0000000000000D+00
180  1.7900000000000D+00  0.0000000000000D+00  0.0000000000000D+00
181  1.8000000000000D+00  0.0000000000000D+00  0.0000000000000D+00
182  1.8100000000000D+00  0.0000000000000D+00  0.0000000000000D+00
183  1.8200000000000D+00  0.0000000000000D+00  0.0000000000000D+00
184  1.8300000000000D+00  0.0000000000000D+00  0.0000000000000D+00
185  1.8400000000000D+00  0.0000000000000D+00  0.0000000000000D+00
186  1.8500000000000D+00  0.0000000000000D+00  0.0000000000000D+00
187  1.8600000000000D+00  0.0000000000000D+00  0.0000000000000D+00
188  1.8700000000000D+00  0.0000000000000D+00  0.0000000000000D+00
189  1.8800000000000D+00  0.0000000000000D+00  0.0000000000000D+00
190  1.8900000000000D+00  0.0000000000000D+00  0.0000000000000D+00
191  1.9000000000000D+00  0.0000000000000D+00  0.0000000000000D+00
192  1.9100000000000D+00  0.0000000000000D+00  0.0000000000000D+00
193  1.9200000000000D+00  0.0000000000000D+00  0.0000000000000D+00
194  1.9300000000000D+00  0.0000000000000D+00  0.0000000000000D+00
195  1.9400000000000D+00  0.0000000000000D+00  0.0000000000000D+00
196  1.9500000000000D+00  0.0000000000000D+00  0.0000000000000D+00
197  1.9600000000000D+00  0.0000000000000D+00  0.0000000000000D+00
198  1.9700000000000D+00  0.0000000000000D+00  0.0000000000000D+00
199  1.9800000000000D+00  0.0000000000000D+00  0.0000000000000D+00
200  1.9900000000000D+00  0.0000000000000D+00  0.0000000000000D+00
201  2.0000000000000D+00  0.0000000000000D+00  0.0000000000000D+00
202  2.0100000000000D+00  0.0000000000000D+00  0.0000000000000D+00
203  2.0200000000000D+00  0.0000000000000D+00  0.0000000000000D+00
204  2.0300000000000D+00  0.0000000000000D+00  0.0000000000000D+00
205  2.0400000000000D+00  0.0000000000000D+00  0.0000000000000D+00
206  2.0500000000000D+00  0.0000000000000D+00  0.0000000000000D+00
207  2.0600000000000D+00  0.0000000000000D+00  0.0000000000000D+00
208  2.0700000000000D+00  0.0000000000000D+00  0.0000000000000D+00
209  2.0800000000000D+00  0.0000000000000D+00  0.0000000000000D+00
210  2.0900000000000D+00  0.0000000000000D+00  0.0000000000000D+00
211  2.1000000000000D+00  0.0000000000000D+00  0.0000000000000D+00
212  2.1100000000000D+00  0.0000000000000D+00  0.0000000000000D+00
213  2.1200000000000D+00  0.0000000000000D+00  0.0000000000000D+00
214  2.1300000000000D+00  0.0000000000000D+00  0.0000000000000D+00
215  2.1400000000000D+00  0.0000000000000D+00  0.0000000000000D+00
216  2.1500000000000D+00  0.0000000000000D+00  0.0000000000000D+00
217  2.1600000000000D+00  0.0000000000000D+00  0.0000000000000D+00
218  2.1700000000000D+00  0.0000000000000D+00  0.0000000000000D+00
219  2.1800000000000D+00  0.0000000000000D+00  0.0000000000000D+00
220  2.1900000000000D+00  0.0000000000000D+00  0.0000000000000D+00
221  2.2000000000000D+00  0.0000000000000D+00  0.0000000000000D+00
222  2.2100000000000D+00  0.0000000000000D+00  0.0000000000000D+00
223  2.2200000000000D+00  0.0000000000000D+00  0.0000000000000D+00
224  2.2300000000000D+00  0.0000000000000D+00  0.0000000000000D+00
225  2.2400000000000D+00  0.0000000000000D+00  0.0000000000000D+00
226  2.2500000000000D+00  0.0000000000000D+00  0.0000000000000D+00
227  2.2600000000000D+00  0.0000000000000D+00  0.0000000000000D+00
228  2.2700000000000D+00  0.0000000000000D+00  0.0000000000000D+00
229  2.2800000000000D+00  0.0000000000000D+00  0.0000000000000D+00
230  2.2900000000000D+00  0.0000000000000D+00  0.0000000000000D+00
231  2.3000000000000D+00  0.0000000000000D+00  0.0000000000000D+00
232  2.3100000000000D+00  0.0000000000000D+00  0.0000000000000D+00
233  2.3200000000000D+00  0.0000000000000D+00  0.0000000000000D+00
234  2.3300000000000D+00  0.0000000000000D+00  0.0000000000000D+00
235  2.3400000000000D+00  0.0000000000000D+00  0.0000000000000D+00
236  2.3500000000000D+00  0.0000000000000D+00  0.0000000000000D+00
237  2.3600000000000D+00  0.0000000000000D+00  0.0000000000000D+00
238  2.3700000000000D+00  0.0000000000000D+00  0.0000000000000D+00
239  2.3800000000000D+00  0.0000000000000D+00  0.0000000000000D+00
240  2.3900000000000D+00  0.0000000000000D+00  0.0000000000000D+00
241  2.4000000000000D+00  0.0000000000000D+00  0.0000000000000D+00
242  2.4100000000000D+00  0.0000000000000D+00  0.0000000000000D+00
243  2.4200000000000D+00  0.0000000000000D+00  0.0000000000000D+00
244  2.4300000000000D+00  0.0000000000000D+00  0.0000000000000D+00
245  2.4400000000000D+00  0.0000000000000D+00  0.0000000000000D+00
246  2.4500000000000D+00  0.0000000000000D+00  0.0000000000000D+00
247  2.4600000000000D+00  0.0000000000000D+00  0.0000000000000D+00
248  2.4700000000000D+00  0.0000000000000D+00  0.0000000000000D+00
249  2.4800000000000D+00  0.0000000000000D+00  0.0000000000000D+00
250  2.4900000000000D+00  0.0000000000000D+00  0.0000000000000D+00
251  2.5000000000000D+00  0.0000000000000D+00  0.0000000000000D+00
252  2.5100000000000D+00  0.0000000000000D+00  0.0000000000000D+00
253  2.5200000000000D+00  0.0000000000000D+00  0.0000000000000D+00
254  2.5300000000000D+00  0.0000000000000D+00  0.0000000000000D+00
255  2.5400000000000D+00  0.0000000000000D+00  0.0000000000000D+00
256  2.5500000000000D+00  0.0000000000000D+00  0.0000000000000D+00
257  2.5600000000000D+00  0.0000000000000D+00  0.0000000000000D+00
258  2.5700000000000D+00  0.0000000000000D+00  0.0000000000000D+00
259  2.5800000000000D+00  0.0000000000000D+00  0.0000000000000D+00
260  2.5900000000000D+00  0.0000000000000D+00  0.0000000000000D+00
261  2.6000000000000D+00  0.0000000000000D+00  0.0000000000000D+00
262  2.6100000000000D+00  0.0000000000000D+00  0.0000000000000D+00
263  2.6200000000000D+00  0.0000000000000D+00  0.0000000000000D+00
264  2.6300000000000D+00  0.0000000000000D+00  0.0000000000000D+00
265  2.6400000000000D+00  0.0000000000000D+00  0.0000000000000D+00
266  2.6500000000000D+00  0.0000000000000D+00  0.0000000000000D+00
267  2.6600000000000D+00  0.0000000000000D+00  0.0000000000000D+00
268  2.6700000000000D+00  0.0000000000000D+00  0.0000000000000D+00
269  2.6800000000000D+00  0.0000000000000D+00  0.0000000000000D+00
270  2.6900000000000D+00  0.0000000000000D+00  0.0000000000000D+00
271  2.7000000000000D+00  0.0000000000000D+00  0.0000000000000D+00
272  2.7100000000000D+00  0.0000000000000D+00  0.0000000000000D+00
273  2.7200000000000D+00  0.0000000000000D+00  0.0000000000000D+00
274  2.7300000000000D+00  0.0000000000000D+00  0.0000000000000D+00
275  2.7400000000000D+00  0.0000000000000D+00  0.0000000000000D+00
276  2.7500000000000D+00  0.0000000000000D+00  0.0000000000000D+00
277  2.7600000000000D+00  0.0000000000000D+00  0.0000000000000D+00
278  2.7700000000000D+00  0.0000000000000D+00  0.0000000000000D+00
279  2.7800000000000D+00  0.0000000000000D+00  0.0000000000000D+00
280  2.7900000000000D+00  0.0000000000000D+00  0.0000000000000D+00
281  2.8000000000000D+00  0.0000000000000D+00  0.0000000000000D+00
282  2.8100000000000D+00  0.0000000000000D+00  0.0000000000000D+00
283  2.8200000000000D+00  0.0000000000000D+00  0.0000000000000D+00
284  2.8300000000000D+00  0.0000000000000D+00  0.0000000000000D+00
285  2.8400000000000D+00  0.0000000000000D+00  0.0000000000000D+00
286  2.8500000000000D+00  0.0000000000000D+00  0.0000000000000D+00
287  2.8600000000000D+00  0.0000000000000D+00  0.0000000000000D+00
288  2.8700000000000D+00  0.0000000000000D+00  0.0000000000000D+00
289  2.8800000000000D+00  0.0000000000000D+00  0.0000000000000D+00
290  2.8900000000000D+00  0.0000000000000D+00  0.0000000000000D+00
291  2.9000000000000D+00  0.0000000000000D+00  0.0000000000000D+00
292  2.9100000000000D+00  0.0000000000000D+00  0.0000000000000D+00
293  2.9200000000000D+00  0.0000000000000D+00  0.0000000000000D+00
294  2.9300000000000D+00  0.0000000000000D+00  0.0000000000000D+00
295  2.9400000000000D+00  0.0000000000000D+00  0.0000000000000D+00
296  2.9500000000000D+00  0.0000000000000D+00  0.0000000000000D+00
297  2.9600000000000D+00  0.0000000000000D+00  0.0000000000000D+00
298  2.9700000000000D+00  0.0000000000000D+00  0.0000000000000D+00
299  2.9800000000000D+00  0.0000000000000D+00  0.0000000000000D+00
300  2.9900000000000D+00  0.0000000000000D+00  0.0000000000000D+00
301  3.0000000000000D+00  0.0000000000000D+00  0.0000000000000D+00
302  3.0100000000000D+00  0.0000000000000D+00  0.0000000000000D+00
303  3.0200000000000D+00  0.0000000000000D+00  0.0000000000000D+00
304  3.0300000000000D+00  0.0000000000000D+00  0.0000000000000D+00
305  3.0400000000000D+00  0.0000000000000D+00  0.0000000000000D+00
306  3.0500000000000D+00  0.0000000000000D+00  0.0000000000000D+00
307  3.0600000000000D+00  0.0000000000000D+00  0.0000000000000D+00
308  3.0700000000000D+00  0.0000000000000D+00  0.0000000000000D+00
309  3.0800000000000D+00  0.0000000000000D+00  0.0000000000000D+00
310  3.0900000000000D+00  0.0000000000000D+00  0.0000000000000D+00
311  3.1000000000000D+00  0.0000000000000D+00  0.0000000000000D+00
312  3.1100000000000D+00  0.0000000000000D+00  0.0000000000000D+00
313  3.1200000000000D+00  0.0000000000000D+00  0.0000000000000D+00
314  3.1300000000000D+00  0.0000000000000D+00  0.0000000000000D+00
315  3.1400000000000D+00  0.0000000000000D+00  0.0000000000000D+00
316  3.1500000000000D+00  0.0000000000000D+00  0.0000000000000D+00
317  3.1600000000000D+00  0.0000000000000D+00  0.0000000000000D+00
318  3.1700000000000D+00  0.0000000000000D+00  0.0000000000000D+00
319  3.1800000000000D+00  0.0000000000000D+00  0.0000000000000D+00
320  3.1900000000000D+00  0.0000000000000D+00  0.0000000000000D+00
321  3.2000000000000D+00  0.0000000000000D+00  0.0000000000000D+00
322  3.2100000000000D+00  0.0000000000000D+00  0.0000000000000D+00
323  3.2200000000000D+00  0.0000000000000D+00  0.0000000000000D+00
324  3.2300000000000D+00  0.0000000000000D+00  0.0000000000000D+00
325  3.2400000000000D+00  0.0000000000000D+00  0.0000000000000D+00
326  3.2500000000000D+00  0.0000000000000D+00  0.0000000000000D+00
327  3.2600000000000D+00  0.0000000000000D+00  0.0000000000000D+00
328  3.2700000000000D+00  0.0000000000000D+00  0.0000000000000D+00
329  3.2800000000000D+00  0.0000000000000D+00  0.0000000000000D+00
330  3.2900000000000D+00  0.0000000000000D+00  0.0000000000000D+00
331  3.3000000000000D+00  0.0000000000000D+00  0.0000000000000D+00
332  3.3100000000000D+00  0.0000000000000D+00  0.0000000000000D+00
333  3.3200000000000D+00  0.0000000000000D+00  0.0000000000000D+00
334  3.3300000000000D+00  0.0000000000000D+00  0.0000000000000D+00
335  3.3400000000000D+00  0.0000000000000D+00  0.0000000000000D+00
336  3.3500000000000D+00  0.0000000000000D+00  0.0000000000000D+00
337  3.3600000000000D+00  0.0000000000000D+00  0.0000000000000D+00
338  3.3700000000000D+00  0.0000000000000D+00  0.0000000000000D+00
339  3.3800000000000D+00  0.0000000000000D+00  0.0000000000000D+00
340  3.3900000000000D+00  0.0000000000000D+00  0.0000000000000D+00
341  3.4000000000000D+00  0.0000000000000D+00  0.0000000000000D+00
342  3.4100000000000D+00  0.0000000000000D+00  0.0000000000000D+00
343  3.4200000000000D+00  0.0000000000000D+00  0.0000000000000D+00
344  3.4300000000000D+00  0.0000000000000D+00  0.0000000000000D+00
345  3.4400000000000D+00  0.0000000000000D+00  0.0000000000000D+00
346  3.4500000000000D+00  0.0000000000000D+00  0.0000000000000D+00
347  3.4600000000000D+00  0.0000000000000D+00  0.0000000000000D+00
348  3.4700000000000D+00  0.0000000000000D+00  0.0000000000000D+00
349  3.4800000000000D+00  0.0000000000000D+00  0.0000000000000D+00
350  3.4900000000000D+00  0.0000000000000D+00  0.0000000000000D+00
351  3.5000000000000D+00  0.0000000000000D+00  0.0000000000000D+00
352  3.5100000000000D+00  0.0000000000000D+00  0.0000000000000D+00
353  3.5200000000000D+00  0.0000000000000D+00  0.0000000000000D+00
354  3.5300000000000D+00  0.0000000000000D+00  0.0000000000000D+00
355  3.5400000000000D+00  0.0000000000000D+00  0.0000000000000D+00
356  3.5500000000000D+00  0.0000000000000D+00  0.0000000000000D+00
357  3.5600000000000D+00  0.0000000000000D+00  0.0000000000000D+00
358  3.5700000000000D+00  0.0000000000000D+00  0.0000000000000D+00
359  3.5800000000000D+00  0.0000000000000D+00  0.0000000000000D+00
360  3.5900000000000D+00  0.0000000000000D+00  0.0000000000000D+00
361  3.6000000000000D+00  0.0000000000000D+00  0.0000000000000D+00
362  3.6100000000000D+00  0.0000000000000D+00  0.0000000000000D+00
363  3.6200000000000D+00  0.0000000000000D+00  0.0000000000000D+00
364  3.6300000000000D+00  0.0000000000000D+00  0.0000000000000D+00
365  3.6400000000000D+00  0.0000000000000D+00  0.0000000000000D+00
366  3.6500000000000D+00  0.0000000000000D+00  0.0000000000000D+00
367  3.6600000000000D+00  0.0000000000000D+00  0.0000000000000D+00
368  3.6700000000000D+00  0.0000000000000D+00  0.0000000000000D+00
369  3.6800000000000D+00  0.0000000000000D+00  0.0000000000000D+00
370  3.6900000000000D+00  0.0000000000000D+00  0.0000000000000D+00
371  3.7000000000000D+00  0.0000000000000D+00  0.0000000000000D+00
372  3.7100000000000D+00  0.0000000000000D+00  0.0000000000000D+00
373  3.7200000000000D+00  0.0000000000000D+00  0.0000000000000D+00
374  3.7300000000000D+00  0.0000000000000D+00  0.0000000000000D+00
375  3.7400000000000D+00  0.0000000000000D+00  0.0000000000000D+00
376  3.7500000000000D+00  0.0000000000000D+00  0.0000000000000D+00
377  3.7600000000000D+00  0.0000000000000D+00  0.0000000000000D+00
378  3.7700000000000D+00  0.0000000000000D+00  0.0000000000000D+00
379  3.7800000000000D+00  0.0000000000000D+00  0.0000000000000D+00
380  3.7900000000000D+00  0.0000000000000D+00  0.0000000000000D+00
381  3.8000000000000D+00  0.0000000000000D+00  0.0000000000000D+00
382  3.8100000000000D+00  0.0000000000000D+00  0.0000000000000D+00
383  3.8200000000000D+00  0.0000000000000D+00  0.0000000000000D+00
384  3.8300000000000D+00  0.0000000000000D+00  0.0000000000000D+00
385  3.8400000000000D+00  0.0000000000000D+00  0.0000000000000D+00
386  3.8500000000000D+00  0.0000000000000D+00  0.0000000000000D+00
387  3.8600000000000D+00  0.0000000000000D+00  0.0000000000000D+00
388  3.8700000000000D+00  0.0000000000000D+00  0.0000000000000D+00
389  3.8800000000000D+00  0.0000000000000D+00  0.0000000000000D+00
390  3.8900000000000D+00  0.0000000000000D+00  0.0000000000000D+00
391  3.9000000000000D+00  0.0000000000000D+00  0.0000000000000D+00
392  3.9100000000000D+00  0.0000000000000D+00  0.0000000000000D+00
393  3.9200000000000D+00  0.0000000000000D+00  0.0000000000000D+00
394  3.9300000000000D+00  0.0000000000000D+00  0.0000000000000D+00
395  3.9400000000000D+00  0.0000000000000D+00  0.0000000000000D+00
396  3.9500000000000D+00  0.0000000000000D+00  0.0000000000000D+00
397  3.9600000000000D+00  0.0000000000000D+00  0.0000000000000D+00
398  3.9700000000000D+00  0.0000000000000D+00  0.0000000000000D+00
399  3.9800000000000D+00  0.0000000000000D+00  0.0000000000000D+00
400  3.9900000000000D+00  0.0000000000000D+00  0.0000000000000D+00
401  4.0000000000000D+00  0.0000000000000D+00  0.0000000000000D+00
402  4.0100000000000D+00  0.0000000000000D+00  0.0000000000000D+00
403  4.0200000000000D+00  0.0000000000000D+00  0.0000000000000D+00
404  4.0300000000000D+00  0.0000000000000D+00  0.0000000000000D+00
405  4.0400000000000D+00  0.0000000000000D+00  0.0000000000000D+00
406  4.0500000000000D+00  0.0000000000000D+00  0.0000000000000D+00
407  4.0600000000000D+00  0.0000000000000D+00  0.0000000000000D+00
408  4.0700000000000D+00  0.0000000000000D+00  0.0000000000000D+00
409  4.0800000000000D+00  0.0000000000000D+00  0.0000000000000D+00
410  4.0900000000000D+00  0.0000000000000D+00  0.0000000000000D+00
411  4.1000000000000D+00  0.0000000000000D+00  0.0000000000000D+00
412  4.1100000000000D+00  0.0000000000000D+00  0.0000000000000D+00
413  4.1200000000000D+00  0.0000000000000D+00  0.0000000000000D+00
414  4.1300000000000D+00  0.0000000000000D+00  0.0000000000000D+00
415  4.1400000000000D+00  0.0000000000000D+00  0.0000000000000D+00
416  4.1500000000000D+00  0.0000000000000D+00  0.0000000000000D+00
417  4.1600000000000D+00  0.0000000000000D+00  0.0000000000000D+00
418  4.1700000000000D+00  0.0000000000000D+00  0.0000000000000D+00
419  4.1800000000000D+00  0.0000000000000D+00  0.0000000000000D+00
420  4.1900000000000D+00  0.0000000000000D+00  0.0000000000000D+00
421  4.2000000000000D+00  0.0000000000000D+00  0.0000000000000D+00
422  4.2100000000000D+00  0.0000000000000D+00  0.0000000000000D+00
423  4.2200000000000D+00  0.0000000000000D+00  0.0000000000000D+00
424  4.2300000000000D+00  0.0000000000000D+00  0.0000000000000D+00
425  4.2400000000000D+00  0.0000000000000D+00  0.0000000000000D+00
426  4.2500000000000D+00  0.0000000000000D+00  0.0000000000000D+00
427  4.2600000000000D+00  0.0000000000000D+00  0.0000000000000D+00
428  4.2700000000000D+00  0.0000000000000D+00  0.0000000000000D+00
429  4.2800000000000D+00  0.0000000000000D+00  0.0000000000000D+00
430  4.2900000000000D+00  0.0000000000000D+00  0.0000000000000D+00
431  4.3000000000000D+00  0.0000000000000D+00  0.0000000000000D+00
432  4.3100000000000D+00  0.0000000000000D+00  0.0000000000000D+00
433  4.3200000000000D+00  0.0000000000000D+00  0.0000000000000D+00
434  4.3300000000000D+00  0.0000000000000D+00  0.0000000000000D+00
435  4.3400000000000D+00  0.0000000000000D+00  0.0000000000000D+00
436  4.3500000000000D+00  0.0000000000000D+00  0.0000000000000D+00
437  4.3600000000000D+00  0.0000000000000D+00  0.0000000000000D+00
438  4.3700000000000D+00  0.0000000000000D+00  0.0000000000000D+00
439  4.3800000000000D+00  0.0000000000000D+00  0.0000000000000D+00
440  4.3900000000000D+00  0.0000000000000D+00  0.0000000000000D+00
441  4.4000000000000D+00  0.0000000000000D+00  0.0000000000000D+00
442  4.4100000000000D+00  0.0000000000000D+00  0.0000000000000D+00
443  4.4200000000000D+00  0.0000000000000D+00  0.0000000000000D+00