Te    ONCVPSP-3.3.0  r_core=   1.30874   1.30874   1.51015
52.0000     24.0000      180506    zatom,zion,pspd
8 -116133   2     4   600     0    pspcod,pspxc,lmax,lloc,mmax,r2well
5.99000000  5.00000000  0.00000000    rchrg fchrg qchrg
2     4     2     0    nproj
3     1           extension_switch
4     4     0    nprojso
0                        -3.8705509339179D-01  9.0942379030485D+00
1  0.0000000000000D+00 -1.0724692578457D-08 -5.3835491620191D-10
2  1.0000000000000D-02  6.7265418665129D-02  9.2108851803301D-02
3  2.0000000000000D-02  1.3385487812891D-01  1.8393521189287D-01
4  3.0000000000000D-02  1.9910184229642D-01  2.7519785290973D-01
5  4.0000000000000D-02  2.6235846324577D-01  3.6561806611014D-01
6  5.0000000000000D-02  3.2300453301842D-01  4.5492089557790D-01
7  6.0000000000000D-02  3.8045597245376D-01  5.4283634271369D-01
8  7.0000000000000D-02  4.3417271560182D-01  6.2910053173811D-01
9  8.0000000000000D-02  4.8366585897253D-01  7.1345682748407D-01
10  9.0000000000000D-02  5.2850395792713D-01  7.9565689740919D-01
11  1.0000000000000D-01  5.6831836765631D-01  8.7546171052030D-01
12  1.1000000000000D-01  6.0280754315384D-01  9.5264246675617D-01
13  1.2000000000000D-01  6.3174023108336D-01  1.0269814513068D+00
14  1.3000000000000D-01  6.5495750612206D-01  1.0982728093422D+00
15  1.4000000000000D-01  6.7237362489913D-01  1.1663232376630D+00
16  1.5000000000000D-01  6.8397569166413D-01  1.2309525908532D+00
17  1.6000000000000D-01  6.8982215094483D-01  1.2919944005903D+00
18  1.7000000000000D-01  6.9004014331007D-01  1.3492963078388D+00
19  1.8000000000000D-01  6.8482178056449D-01  1.4027204086899D+00
20  1.9000000000000D-01  6.7441941590527D-01  1.4521435156094D+00
21  2.0000000000000D-01  6.5914000242017D-01  1.4974573367894D+00
22  2.1000000000000D-01  6.3933864947318D-01  1.5385685771587D+00
23  2.2000000000000D-01  6.1541150071638D-01  1.5753989653726D+00
24  2.3000000000000D-01  5.8778806941872D-01  1.6078852117688D+00
25  2.4000000000000D-01  5.5692317629203D-01  1.6359789028265D+00
26  2.5000000000000D-01  5.2328864184051D-01  1.6596463380926D+00
27  2.6000000000000D-01  4.8736488932736D-01  1.6788683158429D+00
28  2.7000000000000D-01  4.4963261565490D-01  1.6936398739106D+00
29  2.8000000000000D-01  4.1056468575887D-01  1.7039699921545D+00
30  2.9000000000000D-01  3.7061840153942D-01  1.7098812629400D+00
31  3.0000000000000D-01  3.3022828895915D-01  1.7114095357852D+00
32  3.1000000000000D-01  2.8979953685433D-01  1.7086035419769D+00
33  3.2000000000000D-01  2.4970220839557D-01  1.7015245045056D+00
34  3.3000000000000D-01  2.1026633121745D-01  1.6902457381083D+00
35  3.4000000000000D-01  1.7177795527072D-01  1.6748522435568D+00
36  3.5000000000000D-01  1.3447624873573D-01  1.6554402996110D+00
37  3.6000000000000D-01  9.8551682201530D-02  1.6321170552701D+00
38  3.7000000000000D-01  6.4145330129043D-02  1.6050001241358D+00
39  3.8000000000000D-01  3.1349296754265D-02  1.5742171818584D+00
40  3.9000000000000D-01  2.0825145596703D-04  1.5399055667860D+00
41  4.0000000000000D-01 -2.9277963384334D-02  1.5022118831094D+00
42  4.1000000000000D-01 -5.7150710453699D-02  1.4612916049988D+00
43  4.2000000000000D-01 -8.3488000434852D-02  1.4173086794837D+00
44  4.3000000000000D-01 -1.0839909787356D-01  1.3704351251622D+00
45  4.4000000000000D-01 -1.3201840551978D-01  1.3208506232393D+00
46  4.5000000000000D-01 -1.5449875807012D-01  1.2687420969175D+00
47  4.6000000000000D-01 -1.7600426926863D-01  1.2143032748012D+00
48  4.7000000000000D-01 -1.9670288671822D-01  1.1577342337389D+00
49  4.8000000000000D-01 -2.1675881629059D-01  1.0992409164341D+00
50  4.9000000000000D-01 -2.3632498252425D-01  1.0390346191918D+00
51  5.0000000000000D-01 -2.5553569274591D-01  9.7733144536509D-01
52  5.1000000000000D-01 -2.7449967077500D-01  9.1435172039356D-01
53  5.2000000000000D-01 -2.9329362096954D-01  8.5031936480890D-01
54  5.3000000000000D-01 -3.1195647508582D-01  7.8546122219597D-01
55  5.4000000000000D-01 -3.3048446309840D-01  7.2000633984333D-01
56  5.5000000000000D-01 -3.4882713486888D-01  6.5418520068077D-01
57  5.6000000000000D-01 -3.6688444266444D-01  5.8822890606760D-01
58  5.7000000000000D-01 -3.8450497522569D-01  5.2236831005035D-01
59  5.8000000000000D-01 -4.0148541270746D-01  4.5683310683264D-01
60  5.9000000000000D-01 -4.1757124878353D-01  3.9185087437070D-01
61  6.0000000000000D-01 -4.3245880181762D-01  3.2764607820804D-01
62  6.1000000000000D-01 -4.4579851181638D-01  2.6443904086337D-01
63  6.2000000000000D-01 -4.5719949427336D-01  2.0244488326580D-01
64  6.3000000000000D-01 -4.6623529640836D-01  1.4187244587000D-01
65  6.4000000000000D-01 -4.7245077642990D-01  8.2923198144345D-02
66  6.5000000000000D-01 -4.7537000234549D-01  2.5790146103667D-02
67  6.6000000000000D-01 -4.7450504442755D-01 -2.9343251588236D-02
68  6.7000000000000D-01 -4.6936551491412D-01 -8.2304147701781D-02
69  6.8000000000000D-01 -4.5946869022738D-01 -1.3293133889961D-01
70  6.9000000000000D-01 -4.4435003556741D-01 -1.8107625437065D-01
71  7.0000000000000D-01 -4.2357393929768D-01 -2.2660388823784D-01
72  7.1000000000000D-01 -3.9674445543849D-01 -2.6939366333281D-01
73  7.2000000000000D-01 -3.6351584706889D-01 -3.0934021413409D-01
74  7.3000000000000D-01 -3.2360272166506D-01 -3.4635407707920D-01
75  7.4000000000000D-01 -2.7678955145868D-01 -3.8036227708760D-01
76  7.5000000000000D-01 -2.2293937782337D-01 -4.1130879996613D-01
77  7.6000000000000D-01 -1.6200150843130D-01 -4.3915494140414D-01
78  7.7000000000000D-01 -9.4018029443783D-02 -4.6387952449777D-01
79  7.8000000000000D-01 -1.9128971987982D-02 -4.8547897914536D-01
80  7.9000000000000D-01  6.2424007492818D-02 -5.0396727822233D-01
81  8.0000000000000D-01  1.5029555011801D-01 -5.1937572714618D-01
82  8.1000000000000D-01  2.4403621184828D-01 -5.3175260525935D-01
83  8.2000000000000D-01  3.4309383820369D-01 -5.4116265936103D-01
84  8.3000000000000D-01  4.4681672960063D-01 -5.4768645168066D-01
85  8.4000000000000D-01  5.5445859940466D-01 -5.5141956657442D-01
86  8.5000000000000D-01  6.6518529502984D-01 -5.5247168220996D-01
87  8.6000000000000D-01  7.7808322052438D-01 -5.5096551545049D-01
88  8.7000000000000D-01  8.9216936763485D-01 -5.4703565002507D-01
89  8.8000000000000D-01  1.0064028319105D+00 -5.4082725984448D-01
90  8.9000000000000D-01  1.1196976615544D+00 -5.3249474096030D-01
91  9.0000000000000D-01  1.2309368599918D+00 -5.2220026713867D-01
92  9.1000000000000D-01  1.3389873390194D+00 -5.1011228530227D-01
93  9.2000000000000D-01  1.4427155983957D+00 -4.9640396815915D-01
94  9.3000000000000D-01  1.5410038902532D+00 -4.8125164216293D-01
95  9.4000000000000D-01  1.6327666131304D+00 -4.6483320951821D-01
96  9.5000000000000D-01  1.7169666710281D+00 -4.4732658324220D-01
97  9.6000000000000D-01  1.7926315279370D+00 -4.2890815430991D-01
98  9.7000000000000D-01  1.8588686878563D+00 -4.0975130964256D-01
99  9.8000000000000D-01  1.9148803348458D+00 -3.9002501912201D-01
100  9.9000000000000D-01  1.9599768761328D+00 -3.6989250900904D-01
101  1.0000000000000D+00  1.9935891452350D+00 -3.4951003798936D-01
102  1.0100000000000D+00  2.0152790397917D+00 -3.2902579071019D-01
103  1.0200000000000D+00  2.0247483908561D+00 -3.0857890204818D-01
104  1.0300000000000D+00  2.0218458862026D+00 -2.8829862351280D-01
105  1.0400000000000D+00  2.0065718999905D+00 -2.6830364112265D-01
106  1.0500000000000D+00  1.9790811128485D+00 -2.4870155193112D-01
107  1.0600000000000D+00  1.9396828406333D+00 -2.2958850407999D-01
108  1.0700000000000D+00  1.8888390284806D+00 -2.1104900272062D-01
109  1.0800000000000D+00  1.8271599027549D+00 -1.9315588178363D-01
110  1.0900000000000D+00  1.7553973137715D+00 -1.7597043896492D-01
111  1.1000000000000D+00  1.6744358386449D+00 -1.5954272894691D-01
112  1.1100000000000D+00  1.5852817518509D+00 -1.4391200742827D-01
113  1.1200000000000D+00  1.4890500095065D+00 -1.2910731610047D-01
114  1.1300000000000D+00  1.3869494256265D+00 -1.1514819667742D-01
115  1.1400000000000D+00  1.2802662517271D+00 -1.0204552001173D-01
116  1.1500000000000D+00  1.1703463966451D+00 -8.9802414740884D-02
117  1.1600000000000D+00  1.0585765544836D+00 -7.8415277991233D-02
118  1.1700000000000D+00  9.4636452464905D-01 -6.7874849690147D-02
119  1.1800000000000D+00  8.3511902455315D-01 -5.8167331029579D-02
120  1.1900000000000D+00  7.2622930907744D-01 -4.9275526813286D-02
121  1.2000000000000D+00  6.2104491746257D-01 -4.1179991056850D-02
122  1.2100000000000D+00  5.2085586497846D-01 -3.3860155454211D-02
123  1.2200000000000D+00  4.2687359967814D-01 -2.7295420163365D-02
124  1.2300000000000D+00  3.4021303107952D-01 -2.1466187264877D-02
125  1.2400000000000D+00  2.6187591923578D-01 -1.6354818415593D-02
126  1.2500000000000D+00  1.9273590295757D-01 -1.1946498849306D-02
127  1.2600000000000D+00  1.3352541820331D-01 -8.2299916467310D-03
128  1.2700000000000D+00  8.4854306870444D-02 -5.2000536288380D-03
129  1.2800000000000D+00  4.6982678418797D-02 -2.8451387782762D-03
130  1.2900000000000D+00  2.0322522745804D-02 -1.1771325994080D-03
131  1.3000000000000D+00  5.7710505674132D-03 -2.4584658891672D-04
132  1.3100000000000D+00  5.7108354941580D-04  7.0410544408457D-05
133  1.3200000000000D+00 -1.6040119961446D-04  4.0931228596716D-05
134  1.3300000000000D+00  1.0429351972589D-04 -1.8517771721729D-05
135  1.3400000000000D+00  7.0631072483569D-06 -1.0896684356461D-06
136  1.3500000000000D+00 -1.5591313947965D-05  3.4668371940291D-06
137  1.3600000000000D+00 -1.7734924960225D-06 -1.1189551838694D-07
138  1.3700000000000D+00 -1.1967457320253D-06 -7.5506653883597D-08
139  1.3800000000000D+00  0.0000000000000D+00  0.0000000000000D+00
140  1.3900000000000D+00  0.0000000000000D+00  0.0000000000000D+00
141  1.4000000000000D+00  0.0000000000000D+00  0.0000000000000D+00
142  1.4100000000000D+00  0.0000000000000D+00  0.0000000000000D+00
143  1.4200000000000D+00  0.0000000000000D+00  0.0000000000000D+00
144  1.4300000000000D+00  0.0000000000000D+00  0.0000000000000D+00
145  1.4400000000000D+00  0.0000000000000D+00  0.0000000000000D+00
146  1.4500000000000D+00  0.0000000000000D+00  0.0000000000000D+00
147  1.4600000000000D+00  0.0000000000000D+00  0.0000000000000D+00
148  1.4700000000000D+00  0.0000000000000D+00  0.0000000000000D+00
149  1.4800000000000D+00  0.0000000000000D+00  0.0000000000000D+00
150  1.4900000000000D+00  0.0000000000000D+00  0.0000000000000D+00
151  1.5000000000000D+00  0.0000000000000D+00  0.0000000000000D+00
152  1.5100000000000D+00  0.0000000000000D+00  0.0000000000000D+00
153  1.5200000000000D+00  0.0000000000000D+00  0.0000000000000D+00
154  1.5300000000000D+00  0.0000000000000D+00  0.0000000000000D+00
155  1.5400000000000D+00  0.0000000000000D+00  0.0000000000000D+00
156  1.5500000000000D+00  0.0000000000000D+00  0.0000000000000D+00
157  1.5600000000000D+00  0.0000000000000D+00  0.0000000000000D+00
158  1.5700000000000D+00  0.0000000000000D+00  0.0000000000000D+00
159  1.5800000000000D+00  0.0000000000000D+00  0.0000000000000D+00
160  1.5900000000000D+00  0.0000000000000D+00  0.0000000000000D+00
161  1.6000000000000D+00  0.0000000000000D+00  0.0000000000000D+00
162  1.6100000000000D+00  0.0000000000000D+00  0.0000000000000D+00
163  1.6200000000000D+00  0.0000000000000D+00  0.0000000000000D+00
164  1.6300000000000D+00  0.0000000000000D+00  0.0000000000000D+00
165  1.6400000000000D+00  0.0000000000000D+00  0.0000000000000D+00
166  1.6500000000000D+00  0.0000000000000D+00  0.0000000000000D+00
167  1.6600000000000D+00  0.0000000000000D+00  0.0000000000000D+00
168  1.6700000000000D+00  0.0000000000000D+00  0.0000000000000D+00
169  1.6800000000000D+00  0.0000000000000D+00  0.0000000000000D+00
170  1.6900000000000D+00  0.0000000000000D+00  0.0000000000000D+00
171  1.7000000000000D+00  0.0000000000000D+00  0.0000000000000D+00
172  1.7100000000000D+00  0.0000000000000D+00  0.0000000000000D+00
173  1.7200000000000D+00  0.0000000000000D+00  0.0000000000000D+00
174  1.7300000000000D+00  0.0000000000000D+00  0.0000000000000D+00
175  1.7400000000000D+00  0.0000000000000D+00  0.0000000000000D+00
176  1.7500000000000D+00  0.0000000000000D+00  0.0000000000000D+00
177  1.7600000000000D+00  0.0000000000000D+00  0.0000000000000D+00
178  1.7700000000000D+00  0.0000000000000D+00  0.0000000000000D+00
179  1.7800000000000D+00  0.0000000000000D+00  0.0000000000000D+00
180  1.7900000000000D+00  0.0000000000000D+00  0.0000000000000D+00
181  1.8000000000000D+00  0.0000000000000D+00  0.0000000000000D+00
182  1.8100000000000D+00  0.0000000000000D+00  0.0000000000000D+00
183  1.8200000000000D+00  0.0000000000000D+00  0.0000000000000D+00
184  1.8300000000000D+00  0.0000000000000D+00  0.0000000000000D+00
185  1.8400000000000D+00  0.0000000000000D+00  0.0000000000000D+00
186  1.8500000000000D+00  0.0000000000000D+00  0.0000000000000D+00
187  1.8600000000000D+00  0.0000000000000D+00  0.0000000000000D+00
188  1.8700000000000D+00  0.0000000000000D+00  0.0000000000000D+00
189  1.8800000000000D+00  0.0000000000000D+00  0.0000000000000D+00
190  1.8900000000000D+00  0.0000000000000D+00  0.0000000000000D+00
191  1.9000000000000D+00  0.0000000000000D+00  0.0000000000000D+00
192  1.9100000000000D+00  0.0000000000000D+00  0.0000000000000D+00
193  1.9200000000000D+00  0.0000000000000D+00  0.0000000000000D+00
194  1.9300000000000D+00  0.0000000000000D+00  0.0000000000000D+00
195  1.9400000000000D+00  0.0000000000000D+00  0.0000000000000D+00
196  1.9500000000000D+00  0.0000000000000D+00  0.0000000000000D+00
197  1.9600000000000D+00  0.0000000000000D+00  0.0000000000000D+00
198  1.9700000000000D+00  0.0000000000000D+00  0.0000000000000D+00
199  1.9800000000000D+00  0.0000000000000D+00  0.0000000000000D+00
200  1.9900000000000D+00  0.0000000000000D+00  0.0000000000000D+00
201  2.0000000000000D+00  0.0000000000000D+00  0.0000000000000D+00
202  2.0100000000000D+00  0.0000000000000D+00  0.0000000000000D+00
203  2.0200000000000D+00  0.0000000000000D+00  0.0000000000000D+00
204  2.0300000000000D+00  0.0000000000000D+00  0.0000000000000D+00
205  2.0400000000000D+00  0.0000000000000D+00  0.0000000000000D+00
206  2.0500000000000D+00  0.0000000000000D+00  0.0000000000000D+00
207  2.0600000000000D+00  0.0000000000000D+00  0.0000000000000D+00
208  2.0700000000000D+00  0.0000000000000D+00  0.0000000000000D+00
209  2.0800000000000D+00  0.0000000000000D+00  0.0000000000000D+00
210  2.0900000000000D+00  0.0000000000000D+00  0.0000000000000D+00
211  2.1000000000000D+00  0.0000000000000D+00  0.0000000000000D+00
212  2.1100000000000D+00  0.0000000000000D+00  0.0000000000000D+00
213  2.1200000000000D+00  0.0000000000000D+00  0.0000000000000D+00
214  2.1300000000000D+00  0.0000000000000D+00  0.0000000000000D+00
215  2.1400000000000D+00  0.0000000000000D+00  0.0000000000000D+00
216  2.1500000000000D+00  0.0000000000000D+00  0.0000000000000D+00
217  2.1600000000000D+00  0.0000000000000D+00  0.0000000000000D+00
218  2.1700000000000D+00  0.0000000000000D+00  0.0000000000000D+00
219  2.1800000000000D+00  0.0000000000000D+00  0.0000000000000D+00
220  2.1900000000000D+00  0.0000000000000D+00  0.0000000000000D+00
221  2.2000000000000D+00  0.0000000000000D+00  0.0000000000000D+00
222  2.2100000000000D+00  0.0000000000000D+00  0.0000000000000D+00
223  2.2200000000000D+00  0.0000000000000D+00  0.0000000000000D+00
224  2.2300000000000D+00  0.0000000000000D+00  0.0000000000000D+00
225  2.2400000000000D+00  0.0000000000000D+00  0.0000000000000D+00
226  2.2500000000000D+00  0.0000000000000D+00  0.0000000000000D+00
227  2.2600000000000D+00  0.0000000000000D+00  0.0000000000000D+00
228  2.2700000000000D+00  0.0000000000000D+00  0.0000000000000D+00
229  2.2800000000000D+00  0.0000000000000D+00  0.0000000000000D+00
230  2.2900000000000D+00  0.0000000000000D+00  0.0000000000000D+00
231  2.3000000000000D+00  0.0000000000000D+00  0.0000000000000D+00
232  2.3100000000000D+00  0.0000000000000D+00  0.0000000000000D+00
233  2.3200000000000D+00  0.0000000000000D+00  0.0000000000000D+00
234  2.3300000000000D+00  0.0000000000000D+00  0.0000000000000D+00
235  2.3400000000000D+00  0.0000000000000D+00  0.0000000000000D+00
236  2.3500000000000D+00  0.0000000000000D+00  0.0000000000000D+00
237  2.3600000000000D+00  0.0000000000000D+00  0.0000000000000D+00
238  2.3700000000000D+00  0.0000000000000D+00  0.0000000000000D+00
239  2.3800000000000D+00  0.0000000000000D+00  0.0000000000000D+00
240  2.3900000000000D+00  0.0000000000000D+00  0.0000000000000D+00
241  2.4000000000000D+00  0.0000000000000D+00  0.0000000000000D+00
242  2.4100000000000D+00  0.0000000000000D+00  0.0000000000000D+00
243  2.4200000000000D+00  0.0000000000000D+00  0.0000000000000D+00
244  2.4300000000000D+00  0.0000000000000D+00  0.0000000000000D+00
245  2.4400000000000D+00  0.0000000000000D+00  0.0000000000000D+00
246  2.4500000000000D+00  0.0000000000000D+00  0.0000000000000D+00
247  2.4600000000000D+00  0.0000000000000D+00  0.0000000000000D+00
248  2.4700000000000D+00  0.0000000000000D+00  0.0000000000000D+00
249  2.4800000000000D+00  0.0000000000000D+00  0.0000000000000D+00
250  2.4900000000000D+00  0.0000000000000D+00  0.0000000000000D+00
251  2.5000000000000D+00  0.0000000000000D+00  0.0000000000000D+00
252  2.5100000000000D+00  0.0000000000000D+00  0.0000000000000D+00
253  2.5200000000000D+00  0.0000000000000D+00  0.0000000000000D+00
254  2.5300000000000D+00  0.0000000000000D+00  0.0000000000000D+00
255  2.5400000000000D+00  0.0000000000000D+00  0.0000000000000D+00
256  2.5500000000000D+00  0.0000000000000D+00  0.0000000000000D+00
257  2.5600000000000D+00  0.0000000000000D+00  0.0000000000000D+00
258  2.5700000000000D+00  0.0000000000000D+00  0.0000000000000D+00
259  2.5800000000000D+00  0.0000000000000D+00  0.0000000000000D+00
260  2.5900000000000D+00  0.0000000000000D+00  0.0000000000000D+00
261  2.6000000000000D+00  0.0000000000000D+00  0.0000000000000D+00
262  2.6100000000000D+00  0.0000000000000D+00  0.0000000000000D+00
263  2.6200000000000D+00  0.0000000000000D+00  0.0000000000000D+00
264  2.6300000000000D+00  0.0000000000000D+00  0.0000000000000D+00
265  2.6400000000000D+00  0.0000000000000D+00  0.0000000000000D+00
266  2.6500000000000D+00  0.0000000000000D+00  0.0000000000000D+00
267  2.6600000000000D+00  0.0000000000000D+00  0.0000000000000D+00
268  2.6700000000000D+00  0.0000000000000D+00  0.0000000000000D+00
269  2.6800000000000D+00  0.0000000000000D+00  0.0000000000000D+00
270  2.6900000000000D+00  0.0000000000000D+00  0.0000000000000D+00
271  2.7000000000000D+00  0.0000000000000D+00  0.0000000000000D+00
272  2.7100000000000D+00  0.0000000000000D+00  0.0000000000000D+00
273  2.7200000000000D+00  0.0000000000000D+00  0.0000000000000D+00
274  2.7300000000000D+00  0.0000000000000D+00  0.0000000000000D+00
275  2.7400000000000D+00  0.0000000000000D+00  0.0000000000000D+00
276  2.7500000000000D+00  0.0000000000000D+00  0.0000000000000D+00
277  2.7600000000000D+00  0.0000000000000D+00  0.0000000000000D+00
278  2.7700000000000D+00  0.0000000000000D+00  0.0000000000000D+00
279  2.7800000000000D+00  0.0000000000000D+00  0.0000000000000D+00
280  2.7900000000000D+00  0.0000000000000D+00  0.0000000000000D+00
281  2.8000000000000D+00  0.0000000000000D+00  0.0000000000000D+00
282  2.8100000000000D+00  0.0000000000000D+00  0.0000000000000D+00
283  2.8200000000000D+00  0.0000000000000D+00  0.0000000000000D+00
284  2.8300000000000D+00  0.0000000000000D+00  0.0000000000000D+00
285  2.8400000000000D+00  0.0000000000000D+00  0.0000000000000D+00
286  2.8500000000000D+00  0.0000000000000D+00  0.0000000000000D+00
287  2.8600000000000D+00  0.0000000000000D+00  0.0000000000000D+00
288  2.8700000000000D+00  0.0000000000000D+00  0.0000000000000D+00
289  2.8800000000000D+00  0.0000000000000D+00  0.0000000000000D+00
290  2.8900000000000D+00  0.0000000000000D+00  0.0000000000000D+00
291  2.9000000000000D+00  0.0000000000000D+00  0.0000000000000D+00
292  2.9100000000000D+00  0.0000000000000D+00  0.0000000000000D+00
293  2.9200000000000D+00  0.0000000000000D+00  0.0000000000000D+00
294  2.9300000000000D+00  0.0000000000000D+00  0.0000000000000D+00
295  2.9400000000000D+00  0.0000000000000D+00  0.0000000000000D+00
296  2.9500000000000D+00  0.0000000000000D+00  0.0000000000000D+00
297  2.9600000000000D+00  0.0000000000000D+00  0.0000000000000D+00
298  2.9700000000000D+00  0.0000000000000D+00  0.0000000000000D+00
299  2.9800000000000D+00  0.0000000000000D+00  0.0000000000000D+00
300  2.9900000000000D+00  0.0000000000000D+00  0.0000000000000D+00
301  3.0000000000000D+00  0.0000000000000D+00  0.0000000000000D+00
302  3.0100000000000D+00  0.0000000000000D+00  0.0000000000000D+00
303  3.0200000000000D+00  0.0000000000000D+00  0.0000000000000D+00
304  3.0300000000000D+00  0.0000000000000D+00  0.0000000000000D+00
305  3.0400000000000D+00  0.0000000000000D+00  0.0000000000000D+00
306  3.0500000000000D+00  0.0000000000000D+00  0.0000000000000D+00
307  3.0600000000000D+00  0.0000000000000D+00  0.0000000000000D+00
308  3.0700000000000D+00  0.0000000000000D+00  0.0000000000000D+00
309  3.0800000000000D+00  0.0000000000000D+00  0.0000000000000D+00
310  3.0900000000000D+00  0.0000000000000D+00  0.0000000000000D+00
311  3.1000000000000D+00  0.0000000000000D+00  0.0000000000000D+00
312  3.1100000000000D+00  0.0000000000000D+00  0.0000000000000D+00
313  3.1200000000000D+00  0.0000000000000D+00  0.0000000000000D+00
314  3.1300000000000D+00  0.0000000000000D+00  0.0000000000000D+00
315  3.1400000000000D+00  0.0000000000000D+00  0.0000000000000D+00
316  3.1500000000000D+00  0.0000000000000D+00  0.0000000000000D+00
317  3.1600000000000D+00  0.0000000000000D+00  0.0000000000000D+00
318  3.1700000000000D+00  0.0000000000000D+00  0.0000000000000D+00
319  3.1800000000000D+00  0.0000000000000D+00  0.0000000000000D+00
320  3.1900000000000D+00  0.0000000000000D+00  0.0000000000000D+00
321  3.2000000000000D+00  0.0000000000000D+00  0.0000000000000D+00
322  3.2100000000000D+00  0.0000000000000D+00  0.0000000000000D+00
323  3.2200000000000D+00  0.0000000000000D+00  0.0000000000000D+00
324  3.2300000000000D+00  0.0000000000000D+00  0.0000000000000D+00
325  3.2400000000000D+00  0.0000000000000D+00  0.0000000000000D+00
326  3.2500000000000D+00  0.0000000000000D+00  0.0000000000000D+00
327  3.2600000000000D+00  0.0000000000000D+00  0.0000000000000D+00
328  3.2700000000000D+00  0.0000000000000D+00  0.0000000000000D+00
329  3.2800000000000D+00  0.0000000000000D+00  0.0000000000000D+00
330  3.2900000000000D+00  0.0000000000000D+00  0.0000000000000D+00
331  3.3000000000000D+00  0.0000000000000D+00  0.0000000000000D+00
332  3.3100000000000D+00  0.0000000000000D+00  0.0000000000000D+00
333  3.3200000000000D+00  0.0000000000000D+00  0.0000000000000D+00
334  3.3300000000000D+00  0.0000000000000D+00  0.0000000000000D+00
335  3.3400000000000D+00  0.0000000000000D+00  0.0000000000000D+00
336  3.3500000000000D+00  0.0000000000000D+00  0.0000000000000D+00
337  3.3600000000000D+00  0.0000000000000D+00  0.0000000000000D+00
338  3.3700000000000D+00  0.0000000000000D+00  0.0000000000000D+00
339  3.3800000000000D+00  0.0000000000000D+00  0.0000000000000D+00
340  3.3900000000000D+00  0.0000000000000D+00  0.0000000000000D+00
341  3.4000000000000D+00  0.0000000000000D+00  0.0000000000000D+00
342  3.4100000000000D+00  0.0000000000000D+00  0.0000000000000D+00
343  3.4200000000000D+00  0.0000000000000D+00  0.0000000000000D+00
344  3.4300000000000D+00  0.0000000000000D+00  0.0000000000000D+00
345  3.4400000000000D+00  0.0000000000000D+00  0.0000000000000D+00
346  3.4500000000000D+00  0.0000000000000D+00  0.0000000000000D+00
347  3.4600000000000D+00  0.0000000000000D+00  0.0000000000000D+00
348  3.4700000000000D+00  0.0000000000000D+00  0.0000000000000D+00
349  3.4800000000000D+00  0.0000000000000D+00  0.0000000000000D+00
350  3.4900000000000D+00  0.0000000000000D+00  0.0000000000000D+00
351  3.5000000000000D+00  0.0000000000000D+00  0.0000000000000D+00
352  3.5100000000000D+00  0.0000000000000D+00  0.0000000000000D+00
353  3.5200000000000D+00  0.0000000000000D+00  0.0000000000000D+00
354  3.5300000000000D+00  0.0000000000000D+00  0.0000000000000D+00
355  3.5400000000000D+00  0.0000000000000D+00  0.0000000000000D+00
356  3.5500000000000D+00  0.0000000000000D+00  0.0000000000000D+00
357  3.5600000000000D+00  0.0000000000000D+00  0.0000000000000D+00
358  3.5700000000000D+00  0.0000000000000D+00  0.0000000000000D+00
359  3.5800000000000D+00  0.0000000000000D+00  0.0000000000000D+00
360  3.5900000000000D+00  0.0000000000000D+00  0.0000000000000D+00
361  3.6000000000000D+00  0.0000000000000D+00  0.0000000000000D+00
362  3.6100000000000D+00  0.0000000000000D+00  0.0000000000000D+00
363  3.6200000000000D+00  0.0000000000000D+00  0.0000000000000D+00
364  3.6300000000000D+00  0.0000000000000D+00  0.0000000000000D+00
365  3.6400000000000D+00  0.0000000000000D+00  0.0000000000000D+00
366  3.6500000000000D+00  0.0000000000000D+00  0.0000000000000D+00
367  3.6600000000000D+00  0.0000000000000D+00  0.0000000000000D+00
368  3.6700000000000D+00  0.0000000000000D+00  0.0000000000000D+00
369  3.6800000000000D+00  0.0000000000000D+00  0.0000000000000D+00
370  3.6900000000000D+00  0.0000000000000D+00  0.0000000000000D+00
371  3.7000000000000D+00  0.0000000000000D+00  0.0000000000000D+00
372  3.7100000000000D+00  0.0000000000000D+00  0.0000000000000D+00
373  3.7200000000000D+00  0.0000000000000D+00  0.0000000000000D+00
374  3.7300000000000D+00  0.0000000000000D+00  0.0000000000000D+00
375  3.7400000000000D+00  0.0000000000000D+00  0.0000000000000D+00
376  3.7500000000000D+00  0.0000000000000D+00  0.0000000000000D+00
377  3.7600000000000D+00  0.0000000000000D+00  0.0000000000000D+00
378  3.7700000000000D+00  0.0000000000000D+00  0.0000000000000D+00
379  3.7800000000000D+00  0.0000000000000D+00  0.0000000000000D+00
380  3.7900000000000D+00  0.0000000000000D+00  0.0000000000000D+00
381  3.8000000000000D+00  0.0000000000000D+00  0.0000000000000D+00
382  3.8100000000000D+00  0.0000000000000D+00  0.0000000000000D+00
383  3.8200000000000D+00  0.0000000000000D+00  0.0000000000000D+00
384  3.8300000000000D+00  0.0000000000000D+00  0.0000000000000D+00
385  3.8400000000000D+00  0.0000000000000D+00  0.0000000000000D+00
386  3.8500000000000D+00  0.0000000000000D+00  0.0000000000000D+00
387  3.8600000000000D+00  0.0000000000000D+00  0.0000000000000D+00
388  3.8700000000000D+00  0.0000000000000D+00  0.0000000000000D+00
389  3.8800000000000D+00  0.0000000000000D+00  0.0000000000000D+00
390  3.8900000000000D+00  0.0000000000000D+00  0.0000000000000D+00
391  3.9000000000000D+00  0.0000000000000D+00  0.0000000000000D+00
392  3.9100000000000D+00  0.0000000000000D+00  0.0000000000000D+00
393  3.9200000000000D+00  0.0000000000000D+00  0.0000000000000D+00
394  3.9300000000000D+00  0.0000000000000D+00  0.0000000000000D+00
395  3.9400000000000D+00  0.0000000000000D+00  0.0000000000000D+00
396  3.9500000000000D+00  0.0000000000000D+00  0.0000000000000D+00
397  3.9600000000000D+00  0.0000000000000D+00  0.0000000000000D+00
398  3.9700000000000D+00  0.0000000000000D+00  0.0000000000000D+00
399  3.9800000000000D+00  0.0000000000000D+00  0.0000000000000D+00
400  3.9900000000000D+00  0.0000000000000D+00  0.0000000000000D+00
401  4.0000000000000D+00  0.0000000000000D+00  0.0000000000000D+00
402  4.0100000000000D+00  0.0000000000000D+00  0.0000000000000D+00
403  4.0200000000000D+00  0.0000000000000D+00  0.0000000000000D+00
404  4.0300000000000D+00  0.0000000000000D+00  0.0000000000000D+00
405  4.0400000000000D+00  0.0000000000000D+00  0.0000000000000D+00
406  4.0500000000000D+00  0.0000000000000D+00  0.0000000000000D+00
407  4.0600000000000D+00  0.0000000000000D+00  0.0000000000000D+00
408  4.0700000000000D+00  0.0000000000000D+00  0.0000000000000D+00
409  4.0800000000000D+00  0.0000000000000D+00  0.0000000000000D+00
410  4.0900000000000D+00  0.0000000000000D+00  0.0000000000000D+00
411  4.1000000000000D+00  0.0000000000000D+00  0.0000000000000D+00
412  4.1100000000000D+00  0.0000000000000D+00  0.0000000000000D+00
413  4.1200000000000D+00  0.0000000000000D+00  0.0000000000000D+00
414  4.1300000000000D+00  0.0000000000000D+00  0.0000000000000D+00
415  4.1400000000000D+00  0.0000000000000D+00  0.0000000000000D+00
416  4.1500000000000D+00  0.0000000000000D+00  0.0000000000000D+00
417  4.1600000000000D+00  0.0000000000000D+00  0.0000000000000D+00
418  4.1700000000000D+00  0.0000000000000D+00  0.0000000000000D+00
419  4.1800000000000D+00  0.0000000000000D+00  0.0000000000000D+00
420  4.1900000000000D+00  0.0000000000000D+00  0.0000000000000D+00
421  4.2000000000000D+00  0.0000000000000D+00  0.0000000000000D+00
422  4.2100000000000D+00  0.0000000000000D+00  0.0000000000000D+00
423  4.2200000000000D+00  0.0000000000000D+00  0.0000000000000D+00
424  4.2300000000000D+00  0.0000000000000D+00  0.0000000000000D+00
425  4.2400000000000D+00  0.0000000000000D+00  0.0000000000000D+00
426  4.2500000000000D+00  0.0000000000000D+00  0.0000000000000D+00
427  4.2600000000000D+00  0.0000000000000D+00  0.0000000000000D+00
428  4.2700000000000D+00  0.0000000000000D+00  0.0000000000000D+00
429  4.2800000000000D+00  0.0000000000000D+00  0.0000000000000D+00
430  4.2900000000000D+00  0.0000000000000D+00  0.0000000000000D+00
431  4.3000000000000D+00  0.0000000000000D+00  0.0000000000000D+00
432  4.3100000000000D+00  0.0000000000000D+00  0.0000000000000D+00
433  4.3200000000000D+00  0.0000000000000D+00  0.0000000000000D+00
434  4.3300000000000D+00  0.0000000000000D+00  0.0000000000000D+00
435  4.3400000000000D+00  0.0000000000000D+00  0.0000000000000D+00
436  4.3500000000000D+00  0.0000000000000D+00  0.0000000000000D+00
437  4.3600000000000D+00  0.0000000000000D+00  0.0000000000000D+00
438  4.3700000000000D+00  0.0000000000000D+00  0.0000000000000D+00
439  4.3800000000000D+00  0.0000000000000D+00  0.0000000000000D+00
440  4.3900000000000D+00  0.0000000000000D+00  0.0000000000000D+00
441  4.4000000000000D+00  0.0000000000000D+00  0.0000000000000D+00
442  4.4100000000000D+00  0.0000000000000D+00  0.0000000000000D+00
443  4.4200000000000D+00  0.0000000000000D+00  0.0000000000000D+00