Tl    ONCVPSP-3.3.0  r_core=   1.40325   1.50736   1.40325
81.0000     21.0000      180430    zatom,zion,pspd
8 -116133   2     4   600     0    pspcod,pspxc,lmax,lloc,mmax,r2well
5.99000000  9.00000000  0.00000000    rchrg fchrg qchrg
2     4     4     0    nproj
3     1           extension_switch
4     4     0    nprojso
0                         1.9612020910557D+00  1.6574491041481D+01
1  0.0000000000000D+00  2.0092446595399D-09 -6.1364002768016D-10
2  1.0000000000000D-02 -2.8541218657763D-02  8.0285423679188D-02
3  2.0000000000000D-02 -5.6835546173640D-02  1.6036495343759D-01
4  3.0000000000000D-02 -8.4638409372109D-02  2.4003362831854D-01
5  4.0000000000000D-02 -1.1170983807802D-01  3.1908834323570D-01
6  5.0000000000000D-02 -1.3781668480789D-01  3.9732875192287D-01
7  6.0000000000000D-02 -1.6273474774430D-01  4.7455814034618D-01
8  7.0000000000000D-02 -1.8625076715357D-01  5.5058426146572D-01
9  8.0000000000000D-02 -2.0816426741596D-01  6.2522012284795D-01
10  9.0000000000000D-02 -2.2828921929107D-01  6.9828471937824D-01
11  1.0000000000000D-01 -2.4645549990040D-01  7.6960370419506D-01
12  1.1000000000000D-01 -2.6251013113147D-01  8.3900999194760D-01
13  1.2000000000000D-01 -2.7631828070225D-01  9.0634428955354D-01
14  1.3000000000000D-01 -2.8776401391783D-01  9.7145555078352D-01
15  1.4000000000000D-01 -2.9675078814281D-01  1.0342013522077D+00
16  1.5000000000000D-01 -3.0320168614179D-01  1.0944481892853D+00
17  1.6000000000000D-01 -3.0705938864066D-01  1.1520716926426D+00
18  1.7000000000000D-01 -3.0828589066767D-01  1.2069567658455D+00
19  1.8000000000000D-01 -3.0686197037795D-01  1.2589976472079D+00
20  1.9000000000000D-01 -3.0278642308212D-01  1.3080978993735D+00
21  2.0000000000000D-01 -2.9607507702349D-01  1.3541703315288D+00
22  2.1000000000000D-01 -2.8675961101710D-01  1.3971368601558D+00
23  2.2000000000000D-01 -2.7488619731684D-01  1.4369283151649D+00
24  2.3000000000000D-01 -2.6051399596139D-01  1.4734841990764D+00
25  2.4000000000000D-01 -2.4371352931295D-01  1.5067524076003D+00
26  2.5000000000000D-01 -2.2456496750448D-01  1.5366889205046D+00
27  2.6000000000000D-01 -2.0315635701071D-01  1.5632574720433D+00
28  2.7000000000000D-01 -1.7958182552914D-01  1.5864292104279D+00
29  2.8000000000000D-01 -1.5393979677594D-01  1.6061823558666D+00
30  2.9000000000000D-01 -1.2633124865522D-01  1.6225018665621D+00
31  3.0000000000000D-01 -9.6858047545256D-02  1.6353791217455D+00
32  3.1000000000000D-01 -6.5621390164275D-02  1.6448116303412D+00
33  3.2000000000000D-01 -3.2720382646949D-02  1.6508027732032D+00
34  3.3000000000000D-01  1.7492158984943D-03  1.6533615860531D+00
35  3.4000000000000D-01  3.7696060941240D-02  1.6525025892865D+00
36  3.5000000000000D-01  7.5034080092757D-02  1.6482456697213D+00
37  3.6000000000000D-01  1.1368310331893D-01  1.6406160181463D+00
38  3.7000000000000D-01  1.5356925251625D-01  1.6296441252162D+00
39  3.8000000000000D-01  1.9462508154569D-01  1.6153658368441D+00
40  3.9000000000000D-01  2.3678946242233D-01  1.5978224687974D+00
41  4.0000000000000D-01  2.8000721811568D-01  1.5770609787180D+00
42  4.1000000000000D-01  3.2422850725239D-01  1.5531341923008D+00
43  4.2000000000000D-01  3.6940797084712D-01  1.5261010788929D+00
44  4.3000000000000D-01  4.1550365594130D-01  1.4960270703499D+00
45  4.4000000000000D-01  4.6247573561990D-01  1.4629844156300D+00
46  4.5000000000000D-01  5.1028504922656D-01  1.4270525623459D+00
47  4.6000000000000D-01  5.5889149062638D-01  1.3883185553549D+00
48  4.7000000000000D-01  6.0825227600216D-01  1.3468774414740D+00
49  4.8000000000000D-01  6.5832012584409D-01  1.3028326685734D+00
50  4.9000000000000D-01  7.0904139844024D-01  1.2562964666580D+00
51  5.0000000000000D-01  7.6035421424182D-01  1.2073901981024D+00
52  5.1000000000000D-01  8.1218661191348D-01  1.1562446639748D+00
53  5.2000000000000D-01  8.6445477764753D-01  1.1030003533839D+00
54  5.3000000000000D-01  9.1706138939179D-01  1.0478076230136D+00
55  5.4000000000000D-01  9.6989411699723D-01  9.9082679447926D-01
56  5.5000000000000D-01  1.0228243179266D+00  9.3222815784550D-01
57  5.6000000000000D-01  1.0757059660789D+00  8.7219187058527D-01
58  5.7000000000000D-01  1.1283748485087D+00  8.1090774242425D-01
59  5.8000000000000D-01  1.1806480613496D+00  7.4857489789783D-01
60  5.9000000000000D-01  1.2323238321811D+00  6.8540131001941D-01
61  6.0000000000000D-01  1.2831816913833D+00  6.2160320022457D-01
62  6.1000000000000D-01  1.3329830098614D+00  5.5740430165915D-01
63  6.2000000000000D-01  1.3814719148532D+00  4.9303498493283D-01
64  6.3000000000000D-01  1.4283765895483D+00  4.2873124759919D-01
65  6.4000000000000D-01  1.4734109559543D+00  3.6473357083987D-01
66  6.5000000000000D-01  1.5162767339606D+00  3.0128564908913D-01
67  6.6000000000000D-01  1.5566658630197D+00  2.3863300058250D-01
68  6.7000000000000D-01  1.5942632663132D+00  1.7702146903968D-01
69  6.8000000000000D-01  1.6287499308616D+00  1.1669562884367D-01
70  6.9000000000000D-01  1.6598062708666D+00  5.7897108121943D-02
71  7.0000000000000D-01  1.6871157357450D+00  8.6284603389431D-04
72  7.1000000000000D-01  1.7103686189004D+00 -5.4176697696590D-02
73  7.2000000000000D-01  1.7292660184363D+00 -1.0699936145479D-01
74  7.3000000000000D-01  1.7435238967886D+00 -1.5739310778628D-01
75  7.4000000000000D-01  1.7528771827444D+00 -2.0515783498692D-01
76  7.5000000000000D-01  1.7570838565970D+00 -2.5010715167267D-01
77  7.6000000000000D-01  1.7559289573160D+00 -2.9207009135918D-01
78  7.7000000000000D-01  1.7492284496501D+00 -3.3089274399823D-01
79  7.8000000000000D-01  1.7368328890619D+00 -3.6643978166939D-01
80  7.9000000000000D-01  1.7186308233313D+00 -3.9859585621993D-01
81  8.0000000000000D-01  1.6945518715865D+00 -4.2726684758289D-01
82  8.1000000000000D-01  1.6645694244047D+00 -4.5238094277873D-01
83  8.2000000000000D-01  1.6287029124547D+00 -4.7388952720868D-01
84  8.3000000000000D-01  1.5870195958940D+00 -4.9176787176379D-01
85  8.4000000000000D-01  1.5396358323248D+00 -5.0601560148016D-01
86  8.5000000000000D-01  1.4867177874945D+00 -5.1665693394408D-01
87  8.6000000000000D-01  1.4284815600150D+00 -5.2374067835875D-01
88  8.7000000000000D-01  1.3651926990715D+00 -5.2733998909289D-01
89  8.8000000000000D-01  1.2971651022995D+00 -5.2755187060204D-01
90  8.9000000000000D-01  1.2247592895985D+00 -5.2449643380324D-01
91  9.0000000000000D-01  1.1483800575153D+00 -5.1831590724855D-01
92  9.1000000000000D-01  1.0684735278178D+00 -5.0917340973551D-01
93  9.2000000000000D-01  9.8552361287462D-01 -4.9725149426456D-01
94  9.3000000000000D-01  9.0004792930386D-01 -4.8275047645557D-01
95  9.4000000000000D-01  8.1259319992444D-01 -4.6588656361950D-01
96  9.5000000000000D-01  7.2373019219684D-01 -4.4688980359749D-01
97  9.6000000000000D-01  6.3404824894324D-01 -4.2600187518346D-01
98  9.7000000000000D-01  5.4414947406225D-01 -4.0347374439194D-01
99  9.8000000000000D-01  4.5464264208035D-01 -3.7956321297889D-01
100  9.9000000000000D-01  3.6613690563954D-01 -3.5453238744529D-01
101  1.0000000000000D+00  2.7923537915809D-01 -3.2864509816618D-01
102  1.0100000000000D+00  1.9452868016414D-01 -3.0216429937559D-01
103  1.0200000000000D+00  1.1258851173173D-01 -2.7534948134285D-01
104  1.0300000000000D+00  3.3961370255359D-02 -2.4845412627339D-01
105  1.0400000000000D+00 -4.0837537594606D-02 -2.2172323923082D-01
106  1.0500000000000D+00 -1.1133008668370D-01 -1.9539098463610D-01
107  1.0600000000000D+00 -1.7708065467647D-01 -1.6967845782625D-01
108  1.0700000000000D+00 -2.3770109757896D-01 -1.4479161956956D-01
109  1.0800000000000D+00 -2.9285520982418D-01 -1.2091941939197D-01
110  1.0900000000000D+00 -3.4226260528600D-01 -9.8232131287152D-02
111  1.1000000000000D+00 -3.8570196366284D-01 -7.6879922403698D-02
112  1.1100000000000D+00 -4.2301359370595D-01 -5.6991672710880D-02
113  1.1200000000000D+00 -4.5410127521489D-01 -3.8674059811988D-02
114  1.1300000000000D+00 -4.7893335084440D-01 -2.2010919742443D-02
115  1.1400000000000D+00 -4.9754304986072D-01 -7.0628905461863D-03
116  1.1500000000000D+00 -5.1002803528191D-01  6.1326579584553D-03
117  1.1600000000000D+00 -5.1654917801174D-01  1.7561409234189D-02
118  1.1700000000000D+00 -5.1732857254843D-01  2.7231604886951D-02
119  1.1800000000000D+00 -5.1264682050461D-01  3.5173278538429D-02
120  1.1900000000000D+00 -5.0283961560330D-01  4.1437230600732D-02
121  1.2000000000000D+00 -4.8829367854069D-01  4.6093761165380D-02
122  1.2100000000000D+00 -4.6944209760671D-01  4.9231180924679D-02
123  1.2200000000000D+00 -4.4675913947935D-01  5.0954123122223D-02
124  1.2300000000000D+00 -4.2075460290184D-01  5.1381682520947D-02
125  1.2400000000000D+00 -3.9196779705904D-01  5.0645410664392D-02
126  1.2500000000000D+00 -3.6096123010206D-01  4.8887198024628D-02
127  1.2600000000000D+00 -3.2831409808160D-01  4.6257075363775D-02
128  1.2700000000000D+00 -2.9461568357620D-01  4.2910972810155D-02
129  1.2800000000000D+00 -2.6045873615023D-01  3.9008464077218D-02
130  1.2900000000000D+00 -2.2643275344329D-01  3.4710474106868D-02
131  1.3000000000000D+00 -1.9311771059478D-01  3.0177128837476D-02
132  1.3100000000000D+00 -1.6107973770535D-01  2.5566198976803D-02
133  1.3200000000000D+00 -1.3085693158624D-01  2.1028554949764D-02
134  1.3300000000000D+00 -1.0294505908061D-01  1.6703551704109D-02
135  1.3400000000000D+00 -7.7782553968114D-02  1.2714135832608D-02
136  1.3500000000000D+00 -5.5744639701608D-02  9.1647474921066D-03
137  1.3600000000000D+00 -3.7151340171221D-02  6.1419831727148D-03
138  1.3700000000000D+00 -2.2208821483858D-02  3.7038586910031D-03
139  1.3800000000000D+00 -1.1032956426179D-02  1.8823588430637D-03
140  1.3900000000000D+00 -4.0845456465812D-03  7.6431986462535D-04
141  1.4000000000000D+00 -9.6572344107843D-04  2.6667389315777D-04
142  1.4100000000000D+00 -5.0321925984762D-05  7.3351521247922D-05
143  1.4200000000000D+00  7.2565194610620D-07  3.2380590044410D-07
144  1.4300000000000D+00 -2.8484361115763D-05 -5.4742432057867D-06
145  1.4400000000000D+00  1.3491275898966D-06  1.2519255090470D-06
146  1.4500000000000D+00  2.2932116751543D-06  1.2839766420823D-06
147  1.4600000000000D+00  1.3103743147369D-06 -4.7602201877234D-07
148  1.4700000000000D+00  4.4654640214253D-07 -1.6221770942304D-07
149  1.4800000000000D+00  0.0000000000000D+00  0.0000000000000D+00
150  1.4900000000000D+00  0.0000000000000D+00  0.0000000000000D+00
151  1.5000000000000D+00  0.0000000000000D+00  0.0000000000000D+00
152  1.5100000000000D+00  0.0000000000000D+00  0.0000000000000D+00
153  1.5200000000000D+00  0.0000000000000D+00  0.0000000000000D+00
154  1.5300000000000D+00  0.0000000000000D+00  0.0000000000000D+00
155  1.5400000000000D+00  0.0000000000000D+00  0.0000000000000D+00
156  1.5500000000000D+00  0.0000000000000D+00  0.0000000000000D+00
157  1.5600000000000D+00  0.0000000000000D+00  0.0000000000000D+00
158  1.5700000000000D+00  0.0000000000000D+00  0.0000000000000D+00
159  1.5800000000000D+00  0.0000000000000D+00  0.0000000000000D+00
160  1.5900000000000D+00  0.0000000000000D+00  0.0000000000000D+00
161  1.6000000000000D+00  0.0000000000000D+00  0.0000000000000D+00
162  1.6100000000000D+00  0.0000000000000D+00  0.0000000000000D+00
163  1.6200000000000D+00  0.0000000000000D+00  0.0000000000000D+00
164  1.6300000000000D+00  0.0000000000000D+00  0.0000000000000D+00
165  1.6400000000000D+00  0.0000000000000D+00  0.0000000000000D+00
166  1.6500000000000D+00  0.0000000000000D+00  0.0000000000000D+00
167  1.6600000000000D+00  0.0000000000000D+00  0.0000000000000D+00
168  1.6700000000000D+00  0.0000000000000D+00  0.0000000000000D+00
169  1.6800000000000D+00  0.0000000000000D+00  0.0000000000000D+00
170  1.6900000000000D+00  0.0000000000000D+00  0.0000000000000D+00
171  1.7000000000000D+00  0.0000000000000D+00  0.0000000000000D+00
172  1.7100000000000D+00  0.0000000000000D+00  0.0000000000000D+00
173  1.7200000000000D+00  0.0000000000000D+00  0.0000000000000D+00
174  1.7300000000000D+00  0.0000000000000D+00  0.0000000000000D+00
175  1.7400000000000D+00  0.0000000000000D+00  0.0000000000000D+00
176  1.7500000000000D+00  0.0000000000000D+00  0.0000000000000D+00
177  1.7600000000000D+00  0.0000000000000D+00  0.0000000000000D+00
178  1.7700000000000D+00  0.0000000000000D+00  0.0000000000000D+00
179  1.7800000000000D+00  0.0000000000000D+00  0.0000000000000D+00
180  1.7900000000000D+00  0.0000000000000D+00  0.0000000000000D+00
181  1.8000000000000D+00  0.0000000000000D+00  0.0000000000000D+00
182  1.8100000000000D+00  0.0000000000000D+00  0.0000000000000D+00
183  1.8200000000000D+00  0.0000000000000D+00  0.0000000000000D+00
184  1.8300000000000D+00  0.0000000000000D+00  0.0000000000000D+00
185  1.8400000000000D+00  0.0000000000000D+00  0.0000000000000D+00
186  1.8500000000000D+00  0.0000000000000D+00  0.0000000000000D+00
187  1.8600000000000D+00  0.0000000000000D+00  0.0000000000000D+00
188  1.8700000000000D+00  0.0000000000000D+00  0.0000000000000D+00
189  1.8800000000000D+00  0.0000000000000D+00  0.0000000000000D+00
190  1.8900000000000D+00  0.0000000000000D+00  0.0000000000000D+00
191  1.9000000000000D+00  0.0000000000000D+00  0.0000000000000D+00
192  1.9100000000000D+00  0.0000000000000D+00  0.0000000000000D+00
193  1.9200000000000D+00  0.0000000000000D+00  0.0000000000000D+00
194  1.9300000000000D+00  0.0000000000000D+00  0.0000000000000D+00
195  1.9400000000000D+00  0.0000000000000D+00  0.0000000000000D+00
196  1.9500000000000D+00  0.0000000000000D+00  0.0000000000000D+00
197  1.9600000000000D+00  0.0000000000000D+00  0.0000000000000D+00
198  1.9700000000000D+00  0.0000000000000D+00  0.0000000000000D+00
199  1.9800000000000D+00  0.0000000000000D+00  0.0000000000000D+00
200  1.9900000000000D+00  0.0000000000000D+00  0.0000000000000D+00
201  2.0000000000000D+00  0.0000000000000D+00  0.0000000000000D+00
202  2.0100000000000D+00  0.0000000000000D+00  0.0000000000000D+00
203  2.0200000000000D+00  0.0000000000000D+00  0.0000000000000D+00
204  2.0300000000000D+00  0.0000000000000D+00  0.0000000000000D+00
205  2.0400000000000D+00  0.0000000000000D+00  0.0000000000000D+00
206  2.0500000000000D+00  0.0000000000000D+00  0.0000000000000D+00
207  2.0600000000000D+00  0.0000000000000D+00  0.0000000000000D+00
208  2.0700000000000D+00  0.0000000000000D+00  0.0000000000000D+00
209  2.0800000000000D+00  0.0000000000000D+00  0.0000000000000D+00
210  2.0900000000000D+00  0.0000000000000D+00  0.0000000000000D+00
211  2.1000000000000D+00  0.0000000000000D+00  0.0000000000000D+00
212  2.1100000000000D+00  0.0000000000000D+00  0.0000000000000D+00
213  2.1200000000000D+00  0.0000000000000D+00  0.0000000000000D+00
214  2.1300000000000D+00  0.0000000000000D+00  0.0000000000000D+00
215  2.1400000000000D+00  0.0000000000000D+00  0.0000000000000D+00
216  2.1500000000000D+00  0.0000000000000D+00  0.0000000000000D+00
217  2.1600000000000D+00  0.0000000000000D+00  0.0000000000000D+00
218  2.1700000000000D+00  0.0000000000000D+00  0.0000000000000D+00
219  2.1800000000000D+00  0.0000000000000D+00  0.0000000000000D+00
220  2.1900000000000D+00  0.0000000000000D+00  0.0000000000000D+00
221  2.2000000000000D+00  0.0000000000000D+00  0.0000000000000D+00
222  2.2100000000000D+00  0.0000000000000D+00  0.0000000000000D+00
223  2.2200000000000D+00  0.0000000000000D+00  0.0000000000000D+00
224  2.2300000000000D+00  0.0000000000000D+00  0.0000000000000D+00
225  2.2400000000000D+00  0.0000000000000D+00  0.0000000000000D+00
226  2.2500000000000D+00  0.0000000000000D+00  0.0000000000000D+00
227  2.2600000000000D+00  0.0000000000000D+00  0.0000000000000D+00
228  2.2700000000000D+00  0.0000000000000D+00  0.0000000000000D+00
229  2.2800000000000D+00  0.0000000000000D+00  0.0000000000000D+00
230  2.2900000000000D+00  0.0000000000000D+00  0.0000000000000D+00
231  2.3000000000000D+00  0.0000000000000D+00  0.0000000000000D+00
232  2.3100000000000D+00  0.0000000000000D+00  0.0000000000000D+00
233  2.3200000000000D+00  0.0000000000000D+00  0.0000000000000D+00
234  2.3300000000000D+00  0.0000000000000D+00  0.0000000000000D+00
235  2.3400000000000D+00  0.0000000000000D+00  0.0000000000000D+00
236  2.3500000000000D+00  0.0000000000000D+00  0.0000000000000D+00
237  2.3600000000000D+00  0.0000000000000D+00  0.0000000000000D+00
238  2.3700000000000D+00  0.0000000000000D+00  0.0000000000000D+00
239  2.3800000000000D+00  0.0000000000000D+00  0.0000000000000D+00
240  2.3900000000000D+00  0.0000000000000D+00  0.0000000000000D+00
241  2.4000000000000D+00  0.0000000000000D+00  0.0000000000000D+00
242  2.4100000000000D+00  0.0000000000000D+00  0.0000000000000D+00
243  2.4200000000000D+00  0.0000000000000D+00  0.0000000000000D+00
244  2.4300000000000D+00  0.0000000000000D+00  0.0000000000000D+00
245  2.4400000000000D+00  0.0000000000000D+00  0.0000000000000D+00
246  2.4500000000000D+00  0.0000000000000D+00  0.0000000000000D+00
247  2.4600000000000D+00  0.0000000000000D+00  0.0000000000000D+00
248  2.4700000000000D+00  0.0000000000000D+00  0.0000000000000D+00
249  2.4800000000000D+00  0.0000000000000D+00  0.0000000000000D+00
250  2.4900000000000D+00  0.0000000000000D+00  0.0000000000000D+00
251  2.5000000000000D+00  0.0000000000000D+00  0.0000000000000D+00
252  2.5100000000000D+00  0.0000000000000D+00  0.0000000000000D+00
253  2.5200000000000D+00  0.0000000000000D+00  0.0000000000000D+00
254  2.5300000000000D+00  0.0000000000000D+00  0.0000000000000D+00
255  2.5400000000000D+00  0.0000000000000D+00  0.0000000000000D+00
256  2.5500000000000D+00  0.0000000000000D+00  0.0000000000000D+00
257  2.5600000000000D+00  0.0000000000000D+00  0.0000000000000D+00
258  2.5700000000000D+00  0.0000000000000D+00  0.0000000000000D+00
259  2.5800000000000D+00  0.0000000000000D+00  0.0000000000000D+00
260  2.5900000000000D+00  0.0000000000000D+00  0.0000000000000D+00
261  2.6000000000000D+00  0.0000000000000D+00  0.0000000000000D+00
262  2.6100000000000D+00  0.0000000000000D+00  0.0000000000000D+00
263  2.6200000000000D+00  0.0000000000000D+00  0.0000000000000D+00
264  2.6300000000000D+00  0.0000000000000D+00  0.0000000000000D+00
265  2.6400000000000D+00  0.0000000000000D+00  0.0000000000000D+00
266  2.6500000000000D+00  0.0000000000000D+00  0.0000000000000D+00
267  2.6600000000000D+00  0.0000000000000D+00  0.0000000000000D+00
268  2.6700000000000D+00  0.0000000000000D+00  0.0000000000000D+00
269  2.6800000000000D+00  0.0000000000000D+00  0.0000000000000D+00
270  2.6900000000000D+00  0.0000000000000D+00  0.0000000000000D+00
271  2.7000000000000D+00  0.0000000000000D+00  0.0000000000000D+00
272  2.7100000000000D+00  0.0000000000000D+00  0.0000000000000D+00
273  2.7200000000000D+00  0.0000000000000D+00  0.0000000000000D+00
274  2.7300000000000D+00  0.0000000000000D+00  0.0000000000000D+00
275  2.7400000000000D+00  0.0000000000000D+00  0.0000000000000D+00
276  2.7500000000000D+00  0.0000000000000D+00  0.0000000000000D+00
277  2.7600000000000D+00  0.0000000000000D+00  0.0000000000000D+00
278  2.7700000000000D+00  0.0000000000000D+00  0.0000000000000D+00
279  2.7800000000000D+00  0.0000000000000D+00  0.0000000000000D+00
280  2.7900000000000D+00  0.0000000000000D+00  0.0000000000000D+00
281  2.8000000000000D+00  0.0000000000000D+00  0.0000000000000D+00
282  2.8100000000000D+00  0.0000000000000D+00  0.0000000000000D+00
283  2.8200000000000D+00  0.0000000000000D+00  0.0000000000000D+00
284  2.8300000000000D+00  0.0000000000000D+00  0.0000000000000D+00
285  2.8400000000000D+00  0.0000000000000D+00  0.0000000000000D+00
286  2.8500000000000D+00  0.0000000000000D+00  0.0000000000000D+00
287  2.8600000000000D+00  0.0000000000000D+00  0.0000000000000D+00
288  2.8700000000000D+00  0.0000000000000D+00  0.0000000000000D+00
289  2.8800000000000D+00  0.0000000000000D+00  0.0000000000000D+00
290  2.8900000000000D+00  0.0000000000000D+00  0.0000000000000D+00
291  2.9000000000000D+00  0.0000000000000D+00  0.0000000000000D+00
292  2.9100000000000D+00  0.0000000000000D+00  0.0000000000000D+00
293  2.9200000000000D+00  0.0000000000000D+00  0.0000000000000D+00
294  2.9300000000000D+00  0.0000000000000D+00  0.0000000000000D+00
295  2.9400000000000D+00  0.0000000000000D+00  0.0000000000000D+00
296  2.9500000000000D+00  0.0000000000000D+00  0.0000000000000D+00
297  2.9600000000000D+00  0.0000000000000D+00  0.0000000000000D+00
298  2.9700000000000D+00  0.0000000000000D+00  0.0000000000000D+00
299  2.9800000000000D+00  0.0000000000000D+00  0.0000000000000D+00
300  2.9900000000000D+00  0.0000000000000D+00  0.0000000000000D+00
301  3.0000000000000D+00  0.0000000000000D+00  0.0000000000000D+00
302  3.0100000000000D+00  0.0000000000000D+00  0.0000000000000D+00
303  3.0200000000000D+00  0.0000000000000D+00  0.0000000000000D+00
304  3.0300000000000D+00  0.0000000000000D+00  0.0000000000000D+00
305  3.0400000000000D+00  0.0000000000000D+00  0.0000000000000D+00
306  3.0500000000000D+00  0.0000000000000D+00  0.0000000000000D+00
307  3.0600000000000D+00  0.0000000000000D+00  0.0000000000000D+00
308  3.0700000000000D+00  0.0000000000000D+00  0.0000000000000D+00
309  3.0800000000000D+00  0.0000000000000D+00  0.0000000000000D+00
310  3.0900000000000D+00  0.0000000000000D+00  0.0000000000000D+00
311  3.1000000000000D+00  0.0000000000000D+00  0.0000000000000D+00
312  3.1100000000000D+00  0.0000000000000D+00  0.0000000000000D+00
313  3.1200000000000D+00  0.0000000000000D+00  0.0000000000000D+00
314  3.1300000000000D+00  0.0000000000000D+00  0.0000000000000D+00
315  3.1400000000000D+00  0.0000000000000D+00  0.0000000000000D+00
316  3.1500000000000D+00  0.0000000000000D+00  0.0000000000000D+00
317  3.1600000000000D+00  0.0000000000000D+00  0.0000000000000D+00
318  3.1700000000000D+00  0.0000000000000D+00  0.0000000000000D+00
319  3.1800000000000D+00  0.0000000000000D+00  0.0000000000000D+00
320  3.1900000000000D+00  0.0000000000000D+00  0.0000000000000D+00
321  3.2000000000000D+00  0.0000000000000D+00  0.0000000000000D+00
322  3.2100000000000D+00  0.0000000000000D+00  0.0000000000000D+00
323  3.2200000000000D+00  0.0000000000000D+00  0.0000000000000D+00
324  3.2300000000000D+00  0.0000000000000D+00  0.0000000000000D+00
325  3.2400000000000D+00  0.0000000000000D+00  0.0000000000000D+00
326  3.2500000000000D+00  0.0000000000000D+00  0.0000000000000D+00
327  3.2600000000000D+00  0.0000000000000D+00  0.0000000000000D+00
328  3.2700000000000D+00  0.0000000000000D+00  0.0000000000000D+00
329  3.2800000000000D+00  0.0000000000000D+00  0.0000000000000D+00
330  3.2900000000000D+00  0.0000000000000D+00  0.0000000000000D+00
331  3.3000000000000D+00  0.0000000000000D+00  0.0000000000000D+00
332  3.3100000000000D+00  0.0000000000000D+00  0.0000000000000D+00
333  3.3200000000000D+00  0.0000000000000D+00  0.0000000000000D+00
334  3.3300000000000D+00  0.0000000000000D+00  0.0000000000000D+00
335  3.3400000000000D+00  0.0000000000000D+00  0.0000000000000D+00
336  3.3500000000000D+00  0.0000000000000D+00  0.0000000000000D+00
337  3.3600000000000D+00  0.0000000000000D+00  0.0000000000000D+00
338  3.3700000000000D+00  0.0000000000000D+00  0.0000000000000D+00
339  3.3800000000000D+00  0.0000000000000D+00  0.0000000000000D+00
340  3.3900000000000D+00  0.0000000000000D+00  0.0000000000000D+00
341  3.4000000000000D+00  0.0000000000000D+00  0.0000000000000D+00
342  3.4100000000000D+00  0.0000000000000D+00  0.0000000000000D+00
343  3.4200000000000D+00  0.0000000000000D+00  0.0000000000000D+00
344  3.4300000000000D+00  0.0000000000000D+00  0.0000000000000D+00
345  3.4400000000000D+00  0.0000000000000D+00  0.0000000000000D+00
346  3.4500000000000D+00  0.0000000000000D+00  0.0000000000000D+00
347  3.4600000000000D+00  0.0000000000000D+00  0.0000000000000D+00
348  3.4700000000000D+00  0.0000000000000D+00  0.0000000000000D+00
349  3.4800000000000D+00  0.0000000000000D+00  0.0000000000000D+00
350  3.4900000000000D+00  0.0000000000000D+00  0.0000000000000D+00
351  3.5000000000000D+00  0.0000000000000D+00  0.0000000000000D+00
352  3.5100000000000D+00  0.0000000000000D+00  0.0000000000000D+00
353  3.5200000000000D+00  0.0000000000000D+00  0.0000000000000D+00
354  3.5300000000000D+00  0.0000000000000D+00  0.0000000000000D+00
355  3.5400000000000D+00  0.0000000000000D+00  0.0000000000000D+00
356  3.5500000000000D+00  0.0000000000000D+00  0.0000000000000D+00
357  3.5600000000000D+00  0.0000000000000D+00  0.0000000000000D+00
358  3.5700000000000D+00  0.0000000000000D+00  0.0000000000000D+00
359  3.5800000000000D+00  0.0000000000000D+00  0.0000000000000D+00
360  3.5900000000000D+00  0.0000000000000D+00  0.0000000000000D+00
361  3.6000000000000D+00  0.0000000000000D+00  0.0000000000000D+00
362  3.6100000000000D+00  0.0000000000000D+00  0.0000000000000D+00
363  3.6200000000000D+00  0.0000000000000D+00  0.0000000000000D+00
364  3.6300000000000D+00  0.0000000000000D+00  0.0000000000000D+00
365  3.6400000000000D+00  0.0000000000000D+00  0.0000000000000D+00
366  3.6500000000000D+00  0.0000000000000D+00  0.0000000000000D+00
367  3.6600000000000D+00  0.0000000000000D+00  0.0000000000000D+00
368  3.6700000000000D+00  0.0000000000000D+00  0.0000000000000D+00
369  3.6800000000000D+00  0.0000000000000D+00  0.0000000000000D+00
370  3.6900000000000D+00  0.0000000000000D+00  0.0000000000000D+00
371  3.7000000000000D+00  0.0000000000000D+00  0.0000000000000D+00
372  3.7100000000000D+00  0.0000000000000D+00  0.0000000000000D+00
373  3.7200000000000D+00  0.0000000000000D+00  0.0000000000000D+00
374  3.7300000000000D+00  0.0000000000000D+00  0.0000000000000D+00
375  3.7400000000000D+00  0.0000000000000D+00  0.0000000000000D+00
376  3.7500000000000D+00  0.0000000000000D+00  0.0000000000000D+00
377  3.7600000000000D+00  0.0000000000000D+00  0.0000000000000D+00
378  3.7700000000000D+00  0.0000000000000D+00  0.0000000000000D+00
379  3.7800000000000D+00  0.0000000000000D+00  0.0000000000000D+00
380  3.7900000000000D+00  0.0000000000000D+00  0.0000000000000D+00
381  3.8000000000000D+00  0.0000000000000D+00  0.0000000000000D+00
382  3.8100000000000D+00  0.0000000000000D+00  0.0000000000000D+00
383  3.8200000000000D+00  0.0000000000000D+00  0.0000000000000D+00
384  3.8300000000000D+00  0.0000000000000D+00  0.0000000000000D+00
385  3.8400000000000D+00  0.0000000000000D+00  0.0000000000000D+00
386  3.8500000000000D+00  0.0000000000000D+00  0.0000000000000D+00
387  3.8600000000000D+00  0.0000000000000D+00  0.0000000000000D+00
388  3.8700000000000D+00  0.0000000000000D+00  0.0000000000000D+00
389  3.8800000000000D+00  0.0000000000000D+00  0.0000000000000D+00
390  3.8900000000000D+00  0.0000000000000D+00  0.0000000000000D+00
391  3.9000000000000D+00  0.0000000000000D+00  0.0000000000000D+00
392  3.9100000000000D+00  0.0000000000000D+00  0.0000000000000D+00
393  3.9200000000000D+00  0.0000000000000D+00  0.0000000000000D+00
394  3.9300000000000D+00  0.0000000000000D+00  0.0000000000000D+00
395  3.9400000000000D+00  0.0000000000000D+00  0.0000000000000D+00
396  3.9500000000000D+00  0.0000000000000D+00  0.0000000000000D+00
397  3.9600000000000D+00  0.0000000000000D+00  0.0000000000000D+00
398  3.9700000000000D+00  0.0000000000000D+00  0.0000000000000D+00
399  3.9800000000000D+00  0.0000000000000D+00  0.0000000000000D+00
400  3.9900000000000D+00  0.0000000000000D+00  0.0000000000000D+00
401  4.0000000000000D+00  0.0000000000000D+00  0.0000000000000D+00
402  4.0100000000000D+00  0.0000000000000D+00  0.0000000000000D+00
403  4.0200000000000D+00  0.0000000000000D+00  0.0000000000000D+00
404  4.0300000000000D+00  0.0000000000000D+00  0.0000000000000D+00
405  4.0400000000000D+00  0.0000000000000D+00  0.0000000000000D+00
406  4.0500000000000D+00  0.0000000000000D+00  0.0000000000000D+00
407  4.0600000000000D+00  0.0000000000000D+00  0.0000000000000D+00
408  4.0700000000000D+00  0.0000000000000D+00  0.0000000000000D+00
409  4.0800000000000D+00  0.0000000000000D+00  0.0000000000000D+00
410  4.0900000000000D+00  0.0000000000000D+00  0.0000000000000D+00
411  4.1000000000000D+00  0.0000000000000D+00  0.0000000000000D+00
412  4.1100000000000D+00  0.0000000000000D+00  0.0000000000000D+00
413  4.1200000000000D+00  0.0000000000000D+00  0.0000000000000D+00
414  4.1300000000000D+00  0.0000000000000D+00  0.0000000000000D+00
415  4.1400000000000D+00  0.0000000000000D+00  0.0000000000000D+00
416  4.1500000000000D+00  0.0000000000000D+00  0.0000000000000D+00
417  4.1600000000000D+00  0.0000000000000D+00  0.0000000000000D+00
418  4.1700000000000D+00  0.0000000000000D+00  0.0000000000000D+00
419  4.1800000000000D+00  0.0000000000000D+00  0.0000000000000D+00
420  4.1900000000000D+00  0.0000000000000D+00  0.0000000000000D+00
421  4.2000000000000D+00  0.0000000000000D+00  0.0000000000000D+00
422  4.2100000000000D+00  0.0000000000000D+00  0.0000000000000D+00
423  4.2200000000000D+00  0.0000000000000D+00  0.0000000000000D+00
424  4.2300000000000D+00  0.0000000000000D+00  0.0000000000000D+00
425  4.2400000000000D+00  0.0000000000000D+00  0.0000000000000D+00
426  4.2500000000000D+00  0.0000000000000D+00  0.0000000000000D+00
427  4.2600000000000D+00  0.0000000000000D+00  0.0000000000000D+00
428  4.2700000000000D+00  0.0000000000000D+00  0.0000000000000D+00
429  4.2800000000000D+00  0.0000000000000D+00  0.0000000000000D+00
430  4.2900000000000D+00  0.0000000000000D+00  0.0000000000000D+00
431  4.3000000000000D+00  0.0000000000000D+00  0.0000000000000D+00
432  4.3100000000000D+00  0.0000000000000D+00  0.0000000000000D+00
433  4.3200000000000D+00  0.0000000000000D+00  0.0000000000000D+00
434  4.3300000000000D+00  0.0000000000000D+00  0.0000000000000D+00
435  4.3400000000000D+00  0.0000000000000D+00  0.0000000000000D+00
436  4.3500000000000D+00  0.0000000000000D+00  0.0000000000000D+00
437  4.3600000000000D+00  0.0000000000000D+00  0.0000000000000D+00
438  4.3700000000000D+00  0.0000000000000D+00  0.0000000000000D+00
439  4.3800000000000D+00  0.0000000000000D+00  0.0000000000000D+00
440  4.3900000000000D+00  0.0000000000000D+00  0.0000000000000D+00
441  4.4000000000000D+00  0.0000000000000D+00  0.0000000000000D+00
442  4.4100000000000D+00  0.0000000000000D+00  0.0000000000000D+00
443  4.4200000000000D+00  0.0000000000000D+00  0.0000000000000D+00