Xe    ONCVPSP-3.3.0  r_core=   2.00680   1.80252   2.20774
54.0000      8.0000      180503    zatom,zion,pspd
8 -116133   2     4   600     0    pspcod,pspxc,lmax,lloc,mmax,r2well
5.99000000  8.00000000  0.00000000    rchrg fchrg qchrg
2     3     4     0    nproj
3     1           extension_switch
4     4     0    nprojso
0                         1.5125001845826D+00  8.4817745925075D+00
1  0.0000000000000D+00 -4.1823156049503D-11  1.6468812424897D-11
2  1.0000000000000D-02  2.9114199696179D-02  7.4481080938371D-03
3  2.0000000000000D-02  5.8085130605224D-02  1.4961935080911D-02
4  3.0000000000000D-02  8.6770193064494D-02  2.2606885075433D-02
5  4.0000000000000D-02  1.1502812284329D-01  3.0447733856567D-02
6  5.0000000000000D-02  1.4271965182673D-01  3.8548317754258D-02
7  6.0000000000000D-02  1.6970816029063D-01  4.6971226187509D-02
8  7.0000000000000D-02  1.9586031801313D-01  5.5777499053315D-02
9  8.0000000000000D-02  2.2104671151118D-01  6.5026330147996D-02
10  9.0000000000000D-02  2.4514245474126D-01  7.4774777782155D-02
11  1.0000000000000D-01  2.6802778066664D-01  8.5077483726006D-02
12  1.1000000000000D-01  2.8958861116485D-01  9.5986401593320D-02
13  1.2000000000000D-01  3.0971710283131D-01  1.0755053573994D-01
14  1.3000000000000D-01  3.2831216632589D-01  1.1981569171668D-01
15  1.4000000000000D-01  3.4527995700990D-01  1.3282423927656D-01
16  1.5000000000000D-01  3.6053433473033D-01  1.4661488889297D-01
17  1.6000000000000D-01  3.7399729072588D-01  1.6122248269807D-01
18  1.7000000000000D-01  3.8559933975611D-01  1.7667780070097D-01
19  1.8000000000000D-01  3.9527987568845D-01  1.9300738309084D-01
20  1.9000000000000D-01  4.0298748892004D-01  2.1023336937406D-01
21  2.0000000000000D-01  4.0868024415944D-01  2.2837335503430D-01
22  2.1000000000000D-01  4.1232591724885D-01  2.4744026634206D-01
23  2.2000000000000D-01  4.1390218986834D-01  2.6744225387520D-01
24  2.3000000000000D-01  4.1339680113067D-01  2.8838260524395D-01
25  2.4000000000000D-01  4.1080765524690D-01  3.1025967744432D-01
26  2.5000000000000D-01  4.0614288461918D-01  3.3306684919178D-01
27  2.6000000000000D-01  3.9942086789721D-01  3.5679249351332D-01
28  2.7000000000000D-01  3.9067020271812D-01  3.8141997080046D-01
29  2.8000000000000D-01  3.7992963303504D-01  4.0692764244912D-01
30  2.9000000000000D-01  3.6724793112774D-01  4.3328890513447D-01
31  3.0000000000000D-01  3.5268373457701D-01  4.6047224568983D-01
32  3.1000000000000D-01  3.3630533867436D-01  4.8844131647949D-01
33  3.2000000000000D-01  3.1819044492729D-01  5.1715503107568D-01
34  3.3000000000000D-01  2.9842586650872D-01  5.4656767997005D-01
35  3.4000000000000D-01  2.7710719168558D-01  5.7662906597055D-01
36  3.5000000000000D-01  2.5433840644547D-01  6.0728465885569D-01
37  3.6000000000000D-01  2.3023147772105D-01  6.3847576878009D-01
38  3.7000000000000D-01  2.0490589878836D-01  6.7013973784815D-01
39  3.8000000000000D-01  1.7848819858744D-01  7.0221014919724D-01
40  3.9000000000000D-01  1.5111141687994D-01  7.3461705285820D-01
41  4.0000000000000D-01  1.2291454731810D-01  7.6728720758910D-01
42  4.1000000000000D-01  9.4041950653310D-02  8.0014433780906D-01
43  4.2000000000000D-01  6.4642740456853D-02  8.3310940469244D-01
44  4.3000000000000D-01  3.4870143862679D-02  8.6610089042015D-01
45  4.4000000000000D-01  4.8808399695109D-03  8.9903509452450D-01
46  4.5000000000000D-01 -2.5165721342983D-02  9.3182644120756D-01
47  4.6000000000000D-01 -5.5108017321961D-02  9.6438779646032D-01
48  4.7000000000000D-01 -8.4783164015189D-02  9.9663079376105D-01
49  4.8000000000000D-01 -1.1402763866887D-01  1.0284661670877D+00
50  4.9000000000000D-01 -1.4267800973547D-01  1.0598040899393D+00
51  5.0000000000000D-01 -1.7057167131849D-01  1.0905545190267D+00
52  5.1000000000000D-01 -1.9754757883522D-01  1.1206275412654D+00
53  5.2000000000000D-01 -2.2344698264628D-01  1.1499337226748D+00
54  5.3000000000000D-01 -2.4811415638257D-01  1.1783844577770D+00
55  5.4000000000000D-01 -2.7139711669613D-01  1.2058923180672D+00
56  5.5000000000000D-01 -2.9314833117228D-01  1.2323713981277D+00
57  5.6000000000000D-01 -3.1322541116549D-01  1.2577376579534D+00
58  5.7000000000000D-01 -3.3149178636150D-01  1.2819092600614D+00
59  5.8000000000000D-01 -3.4781735792338D-01  1.3048068999712D+00
60  5.9000000000000D-01 -3.6207912714860D-01  1.3263541286561D+00
61  6.0000000000000D-01 -3.7416179664909D-01  1.3464776655940D+00
62  6.1000000000000D-01 -3.8395834116486D-01  1.3651077010711D+00
63  6.2000000000000D-01 -3.9137054523549D-01  1.3821781864333D+00
64  6.3000000000000D-01 -3.9630950508068D-01  1.3976271110162D+00
65  6.4000000000000D-01 -3.9869609218220D-01  1.4113967645379D+00
66  6.5000000000000D-01 -3.9846137621366D-01  1.4234339837899D+00
67  6.6000000000000D-01 -3.9554700513082D-01  1.4336903825209D+00
68  6.7000000000000D-01 -3.8990554041383D-01  1.4421225634735D+00
69  6.8000000000000D-01 -3.8150074564277D-01  1.4486923116054D+00
70  6.9000000000000D-01 -3.7030782678841D-01  1.4533667675993D+00
71  7.0000000000000D-01 -3.5631362280915D-01  1.4561185808478D+00
72  7.1000000000000D-01 -3.3951674536569D-01  1.4569260411815D+00
73  7.2000000000000D-01 -3.1992766669031D-01  1.4557731886997D+00
74  7.3000000000000D-01 -2.9756875488244D-01  1.4526499011525D+00
75  7.4000000000000D-01 -2.7247425614106D-01  1.4475519584187D+00
76  7.5000000000000D-01 -2.4469022368893D-01  1.4404810837236D+00
77  7.6000000000000D-01 -2.1427439339222D-01  1.4314449613388D+00
78  7.7000000000000D-01 -1.8129600632861D-01  1.4204572306110D+00
79  7.8000000000000D-01 -1.4583557880923D-01  1.4075374562692D+00
80  7.9000000000000D-01 -1.0798462061104D-01  1.3927110750645D+00
81  8.0000000000000D-01 -6.7845302426879D-02  1.3760093189043D+00
82  8.1000000000000D-01 -2.5530073788075D-02  1.3574691147457D+00
83  8.2000000000000D-01  1.8838767041333D-02  1.3371329616194D+00
84  8.3000000000000D-01  6.5129549460706D-02  1.3150487852594D+00
85  8.4000000000000D-01  1.1320175124863D-01  1.2912697709159D+00
86  8.5000000000000D-01  1.6290656140265D-01  1.2658541750297D+00
87  8.6000000000000D-01  2.1408748269086D-01  1.2388651165431D+00
88  8.7000000000000D-01  2.6658097129717D-01  1.2103703487200D+00
89  8.8000000000000D-01  3.2021711074675D-01  1.1804420124346D+00
90  8.9000000000000D-01  3.7482031711552D-01  1.1491563719804D+00
91  9.0000000000000D-01  4.3021007235819D-01  1.1165935345294D+00
92  9.1000000000000D-01  4.8620168243411D-01  1.0828371544526D+00
93  9.2000000000000D-01  5.4260705677061D-01  1.0479741237814D+00
94  9.3000000000000D-01  5.9923550548004D-01  1.0120942501608D+00
95  9.4000000000000D-01  6.5589455064010D-01  9.7528992369961D-01
96  9.5000000000000D-01  7.1239074785844D-01  9.3765577418259D-01
97  9.6000000000000D-01  7.6853051427209D-01  8.9928832015069D-01
98  9.7000000000000D-01  8.2412095908068D-01  8.6028561139940D-01
99  9.8000000000000D-01  8.7897071268060D-01  8.2074686647473D-01
100  9.9000000000000D-01  9.3289075045493D-01  7.8077210677216D-01
101  1.0000000000000D+00  9.8569520728129D-01  7.4046178886010D-01
102  1.0100000000000D+00  1.0372021788474D+00  6.9991643665837D-01
103  1.0200000000000D+00  1.0872345059123D+00  6.5923627510292D-01
104  1.0300000000000D+00  1.1356205377197D+00  6.1852086692071D-01
105  1.0400000000000D+00  1.1821948708548D+00  5.7786875412328D-01
106  1.0500000000000D+00  1.2267990599496D+00  5.3737710580342D-01
107  1.0600000000000D+00  1.2692822967615D+00  4.9714137378872D-01
108  1.0700000000000D+00  1.3095020542953D+00  4.5725495766717D-01
109  1.0800000000000D+00  1.3473246928088D+00  4.1780888065071D-01
110  1.0900000000000D+00  1.3826260247146D+00  3.7889147769101D-01
111  1.1000000000000D+00  1.4152918356004D+00  3.4058809719509D-01
112  1.1100000000000D+00  1.4452183587779D+00  3.0298081762904D-01
113  1.1200000000000D+00  1.4723127010213D+00  2.6614818021445D-01
114  1.1300000000000D+00  1.4964932173860D+00  2.3016493884480D-01
115  1.1400000000000D+00  1.5176898332639D+00  1.9510182825701D-01
116  1.1500000000000D+00  1.5358443120647D+00  1.6102535141143D-01
117  1.1600000000000D+00  1.5509104672056D+00  1.2799758693014D-01
118  1.1700000000000D+00  1.5628543173777D+00  9.6076017339363D-02
119  1.1800000000000D+00  1.5716541843633D+00  6.5313378749147D-02
120  1.1900000000000D+00  1.5773007328816D+00  3.5757532529020D-02
121  1.2000000000000D+00  1.5797969523460D+00  7.4513593858627D-03
122  1.2100000000000D+00  1.5791580806711D+00 -1.9567323847209D-02
123  1.2200000000000D+00  1.5754114705536D+00 -4.5265824512600D-02
124  1.2300000000000D+00  1.5685963989128D+00 -6.9616611422607D-02
125  1.2400000000000D+00  1.5587638205774D+00 -9.2597329206224D-02
126  1.2500000000000D+00  1.5459760675399D+00 -1.1419078986473D-01
127  1.2600000000000D+00  1.5303064952598D+00 -1.3438494175256D-01
128  1.2700000000000D+00  1.5118390780036D+00 -1.5317281640873D-01
129  1.2800000000000D+00  1.4906679553638D+00 -1.7055245373007D-01
130  1.2900000000000D+00  1.4668969321964D+00 -1.8652680601563D-01
131  1.3000000000000D+00  1.4406389347730D+00 -2.0110362164752D-01
132  1.3100000000000D+00  1.4120154259737D+00 -2.1429530919465D-01
133  1.3200000000000D+00  1.3811557824720D+00 -2.2611878277110D-01
134  1.3300000000000D+00  1.3481966373525D+00 -2.3659528970797D-01
135  1.3400000000000D+00  1.3132811915209D+00 -2.4575022156386D-01
136  1.3500000000000D+00  1.2765584974766D+00 -2.5361290959053D-01
137  1.3600000000000D+00  1.2381827193272D+00 -2.6021640593292D-01
138  1.3700000000000D+00  1.1983123727825D+00 -2.6559725177197D-01
139  1.3800000000000D+00  1.1571095491785D+00 -2.6979523377394D-01
140  1.3900000000000D+00  1.1147391275825D+00 -2.7285313024921D-01
141  1.4000000000000D+00  1.0713679790275D+00 -2.7481644838142D-01
142  1.4100000000000D+00  1.0271641670929D+00 -2.7573315405219D-01
143  1.4200000000000D+00  9.8229614889989D-01 -2.7565339568894D-01
144  1.4300000000000D+00  9.3693198077039D-01 -2.7462922366454D-01
145  1.4400000000000D+00  8.9123853247001D-01 -2.7271430672619D-01
146  1.4500000000000D+00  8.4538071432983D-01 -2.6996364698646D-01
147  1.4600000000000D+00  7.9952072095624D-01 -2.6643329494037D-01
148  1.4700000000000D+00  7.5381729554510D-01 -2.6218006599782D-01
149  1.4800000000000D+00  7.0842501857179D-01 -2.5726126000747D-01
150  1.4900000000000D+00  6.6349362415157D-01 -2.5173438509913D-01
151  1.5000000000000D+00  6.1916734809087D-01 -2.4565688738668D-01
152  1.5100000000000D+00  5.7558431000590D-01 -2.3908588761158D-01
153  1.5200000000000D+00  5.3287593357844D-01 -2.3207792628951D-01
154  1.5300000000000D+00  4.9116640676755D-01 -2.2468871827491D-01
155  1.5400000000000D+00  4.5057218535137D-01 -2.1697291810691D-01
156  1.5500000000000D+00  4.1120154170036D-01 -2.0898389707098D-01
157  1.5600000000000D+00  3.7315416087991D-01 -2.0077353294917D-01
158  1.5700000000000D+00  3.3652078633716D-01 -1.9239201350442D-01
159  1.5800000000000D+00  3.0138291574775D-01 -1.8388765418171D-01
160  1.5900000000000D+00  2.6781254972650D-01 -1.7530673122390D-01
161  1.6000000000000D+00  2.3587199234883D-01 -1.6669333013986D-01
162  1.6100000000000D+00  2.0561370661175D-01 -1.5808921087635D-01
163  1.6200000000000D+00  1.7708022224424D-01 -1.4953368909970D-01
164  1.6300000000000D+00  1.5030409912431D-01 -1.4106353499810D-01
165  1.6400000000000D+00  1.2530794268649D-01 -1.3271288864158D-01
166  1.6500000000000D+00  1.0210447403603D-01 -1.2451319314042D-01
167  1.6600000000000D+00  8.0696650732929D-02 -1.1649314447282D-01
168  1.6700000000000D+00  6.1077840118673D-02 -1.0867865894410D-01
169  1.6800000000000D+00  4.3232040815999D-02 -1.0109285700985D-01
170  1.6900000000000D+00  2.7134153519599D-02 -9.3756064173019D-02
171  1.7000000000000D+00  1.2750296322054D-02 -8.6685827526498D-02
172  1.7100000000000D+00  3.8165081645506D-05 -7.9896948448134D-02
173  1.7200000000000D+00 -1.1052566356551D-02 -7.3401529834785D-02
174  1.7300000000000D+00 -2.0579806052255D-02 -6.7209038231422D-02
175  1.7400000000000D+00 -2.8608569936821D-02 -6.1326378943901D-02
176  1.7500000000000D+00 -3.5210474774626D-02 -5.5757984209911D-02
177  1.7600000000000D+00 -4.0463190387689D-02 -5.0505916520181D-02
178  1.7700000000000D+00 -4.4449921456825D-02 -4.5569966244494D-02
179  1.7800000000000D+00 -4.7258703958260D-02 -4.0947809049498D-02
180  1.7900000000000D+00 -4.8981903380366D-02 -3.6635103127241D-02
181  1.8000000000000D+00 -4.9715817834800D-02 -3.2625562714745D-02
182  1.8100000000000D+00 -4.9559521020043D-02 -2.8911258992869D-02
183  1.8200000000000D+00 -4.8613819183762D-02 -2.5482887336418D-02
184  1.8300000000000D+00 -4.6980239776176D-02 -2.2330044517788D-02
185  1.8400000000000D+00 -4.4759821657135D-02 -1.9441570381302D-02
186  1.8500000000000D+00 -4.2052323548253D-02 -1.6805767866966D-02
187  1.8600000000000D+00 -3.8955740275224D-02 -1.4410536968971D-02
188  1.8700000000000D+00 -3.5565694399531D-02 -1.2243547527821D-02
189  1.8800000000000D+00 -3.1974743330910D-02 -1.0292435146693D-02
190  1.8900000000000D+00 -2.8271827156602D-02 -8.5449590205195D-03
191  1.9000000000000D+00 -2.4541694003425D-02 -6.9891666429729D-03
192  1.9100000000000D+00 -2.0864371605999D-02 -5.6135459924107D-03
193  1.9200000000000D+00 -1.7314674169482D-02 -4.4071678175419D-03
194  1.9300000000000D+00 -1.3961743434255D-02 -3.3598185199597D-03
195  1.9400000000000D+00 -1.0870358715235D-02 -2.4622384052194D-03
196  1.9500000000000D+00 -8.0957225472266D-03 -1.7059000339263D-03
197  1.9600000000000D+00 -5.6799254392591D-03 -1.0829824912483D-03
198  1.9700000000000D+00 -3.6548299602212D-03 -5.8769322463359D-04
199  1.9800000000000D+00 -2.1098583986833D-03 -2.1510548881284D-04
200  1.9900000000000D+00 -1.1035218895832D-03  4.2666534104016D-05
201  2.0000000000000D+00 -5.4193842835173D-04  1.8014696778789D-04
202  2.0100000000000D+00 -2.5057994209817D-04  1.9242677118128D-04
203  2.0200000000000D+00 -8.5088797052859D-05  1.0719819150221D-04
204  2.0300000000000D+00 -4.2699560687725D-06  7.2758312908101D-06
205  2.0400000000000D+00  1.3005417435738D-05 -2.6523531448804D-05
206  2.0500000000000D+00  5.7285887423932D-06 -1.4196609100987D-05
207  2.0600000000000D+00 -2.6540057840909D-06  3.8027223838891D-06
208  2.0700000000000D+00 -3.4931199794461D-06  5.3430951707077D-06
209  2.0800000000000D+00  1.2143493850443D-08 -7.5243553877389D-09
210  2.0900000000000D+00  9.1575835955978D-07 -5.6742247589390D-07
211  2.1000000000000D+00  5.1024023125737D-07 -3.1615520873859D-07
212  2.1100000000000D+00  0.0000000000000D+00  0.0000000000000D+00
213  2.1200000000000D+00  0.0000000000000D+00  0.0000000000000D+00
214  2.1300000000000D+00  0.0000000000000D+00  0.0000000000000D+00
215  2.1400000000000D+00  0.0000000000000D+00  0.0000000000000D+00
216  2.1500000000000D+00  0.0000000000000D+00  0.0000000000000D+00
217  2.1600000000000D+00  0.0000000000000D+00  0.0000000000000D+00
218  2.1700000000000D+00  0.0000000000000D+00  0.0000000000000D+00
219  2.1800000000000D+00  0.0000000000000D+00  0.0000000000000D+00
220  2.1900000000000D+00  0.0000000000000D+00  0.0000000000000D+00
221  2.2000000000000D+00  0.0000000000000D+00  0.0000000000000D+00
222  2.2100000000000D+00  0.0000000000000D+00  0.0000000000000D+00
223  2.2200000000000D+00  0.0000000000000D+00  0.0000000000000D+00
224  2.2300000000000D+00  0.0000000000000D+00  0.0000000000000D+00
225  2.2400000000000D+00  0.0000000000000D+00  0.0000000000000D+00
226  2.2500000000000D+00  0.0000000000000D+00  0.0000000000000D+00
227  2.2600000000000D+00  0.0000000000000D+00  0.0000000000000D+00
228  2.2700000000000D+00  0.0000000000000D+00  0.0000000000000D+00
229  2.2800000000000D+00  0.0000000000000D+00  0.0000000000000D+00
230  2.2900000000000D+00  0.0000000000000D+00  0.0000000000000D+00
231  2.3000000000000D+00  0.0000000000000D+00  0.0000000000000D+00
232  2.3100000000000D+00  0.0000000000000D+00  0.0000000000000D+00
233  2.3200000000000D+00  0.0000000000000D+00  0.0000000000000D+00
234  2.3300000000000D+00  0.0000000000000D+00  0.0000000000000D+00
235  2.3400000000000D+00  0.0000000000000D+00  0.0000000000000D+00
236  2.3500000000000D+00  0.0000000000000D+00  0.0000000000000D+00
237  2.3600000000000D+00  0.0000000000000D+00  0.0000000000000D+00
238  2.3700000000000D+00  0.0000000000000D+00  0.0000000000000D+00
239  2.3800000000000D+00  0.0000000000000D+00  0.0000000000000D+00
240  2.3900000000000D+00  0.0000000000000D+00  0.0000000000000D+00
241  2.4000000000000D+00  0.0000000000000D+00  0.0000000000000D+00
242  2.4100000000000D+00  0.0000000000000D+00  0.0000000000000D+00
243  2.4200000000000D+00  0.0000000000000D+00  0.0000000000000D+00
244  2.4300000000000D+00  0.0000000000000D+00  0.0000000000000D+00
245  2.4400000000000D+00  0.0000000000000D+00  0.0000000000000D+00
246  2.4500000000000D+00  0.0000000000000D+00  0.0000000000000D+00
247  2.4600000000000D+00  0.0000000000000D+00  0.0000000000000D+00
248  2.4700000000000D+00  0.0000000000000D+00  0.0000000000000D+00
249  2.4800000000000D+00  0.0000000000000D+00  0.0000000000000D+00
250  2.4900000000000D+00  0.0000000000000D+00  0.0000000000000D+00
251  2.5000000000000D+00  0.0000000000000D+00  0.0000000000000D+00
252  2.5100000000000D+00  0.0000000000000D+00  0.0000000000000D+00
253  2.5200000000000D+00  0.0000000000000D+00  0.0000000000000D+00
254  2.5300000000000D+00  0.0000000000000D+00  0.0000000000000D+00
255  2.5400000000000D+00  0.0000000000000D+00  0.0000000000000D+00
256  2.5500000000000D+00  0.0000000000000D+00  0.0000000000000D+00
257  2.5600000000000D+00  0.0000000000000D+00  0.0000000000000D+00
258  2.5700000000000D+00  0.0000000000000D+00  0.0000000000000D+00
259  2.5800000000000D+00  0.0000000000000D+00  0.0000000000000D+00
260  2.5900000000000D+00  0.0000000000000D+00  0.0000000000000D+00
261  2.6000000000000D+00  0.0000000000000D+00  0.0000000000000D+00
262  2.6100000000000D+00  0.0000000000000D+00  0.0000000000000D+00
263  2.6200000000000D+00  0.0000000000000D+00  0.0000000000000D+00
264  2.6300000000000D+00  0.0000000000000D+00  0.0000000000000D+00
265  2.6400000000000D+00  0.0000000000000D+00  0.0000000000000D+00
266  2.6500000000000D+00  0.0000000000000D+00  0.0000000000000D+00
267  2.6600000000000D+00  0.0000000000000D+00  0.0000000000000D+00
268  2.6700000000000D+00  0.0000000000000D+00  0.0000000000000D+00
269  2.6800000000000D+00  0.0000000000000D+00  0.0000000000000D+00
270  2.6900000000000D+00  0.0000000000000D+00  0.0000000000000D+00
271  2.7000000000000D+00  0.0000000000000D+00  0.0000000000000D+00
272  2.7100000000000D+00  0.0000000000000D+00  0.0000000000000D+00
273  2.7200000000000D+00  0.0000000000000D+00  0.0000000000000D+00
274  2.7300000000000D+00  0.0000000000000D+00  0.0000000000000D+00
275  2.7400000000000D+00  0.0000000000000D+00  0.0000000000000D+00
276  2.7500000000000D+00  0.0000000000000D+00  0.0000000000000D+00
277  2.7600000000000D+00  0.0000000000000D+00  0.0000000000000D+00
278  2.7700000000000D+00  0.0000000000000D+00  0.0000000000000D+00
279  2.7800000000000D+00  0.0000000000000D+00  0.0000000000000D+00
280  2.7900000000000D+00  0.0000000000000D+00  0.0000000000000D+00
281  2.8000000000000D+00  0.0000000000000D+00  0.0000000000000D+00
282  2.8100000000000D+00  0.0000000000000D+00  0.0000000000000D+00
283  2.8200000000000D+00  0.0000000000000D+00  0.0000000000000D+00
284  2.8300000000000D+00  0.0000000000000D+00  0.0000000000000D+00
285  2.8400000000000D+00  0.0000000000000D+00  0.0000000000000D+00
286  2.8500000000000D+00  0.0000000000000D+00  0.0000000000000D+00
287  2.8600000000000D+00  0.0000000000000D+00  0.0000000000000D+00
288  2.8700000000000D+00  0.0000000000000D+00  0.0000000000000D+00
289  2.8800000000000D+00  0.0000000000000D+00  0.0000000000000D+00
290  2.8900000000000D+00  0.0000000000000D+00  0.0000000000000D+00
291  2.9000000000000D+00  0.0000000000000D+00  0.0000000000000D+00
292  2.9100000000000D+00  0.0000000000000D+00  0.0000000000000D+00
293  2.9200000000000D+00  0.0000000000000D+00  0.0000000000000D+00
294  2.9300000000000D+00  0.0000000000000D+00  0.0000000000000D+00
295  2.9400000000000D+00  0.0000000000000D+00  0.0000000000000D+00
296  2.9500000000000D+00  0.0000000000000D+00  0.0000000000000D+00
297  2.9600000000000D+00  0.0000000000000D+00  0.0000000000000D+00
298  2.9700000000000D+00  0.0000000000000D+00  0.0000000000000D+00
299  2.9800000000000D+00  0.0000000000000D+00  0.0000000000000D+00
300  2.9900000000000D+00  0.0000000000000D+00  0.0000000000000D+00
301  3.0000000000000D+00  0.0000000000000D+00  0.0000000000000D+00
302  3.0100000000000D+00  0.0000000000000D+00  0.0000000000000D+00
303  3.0200000000000D+00  0.0000000000000D+00  0.0000000000000D+00
304  3.0300000000000D+00  0.0000000000000D+00  0.0000000000000D+00
305  3.0400000000000D+00  0.0000000000000D+00  0.0000000000000D+00
306  3.0500000000000D+00  0.0000000000000D+00  0.0000000000000D+00
307  3.0600000000000D+00  0.0000000000000D+00  0.0000000000000D+00
308  3.0700000000000D+00  0.0000000000000D+00  0.0000000000000D+00
309  3.0800000000000D+00  0.0000000000000D+00  0.0000000000000D+00
310  3.0900000000000D+00  0.0000000000000D+00  0.0000000000000D+00
311  3.1000000000000D+00  0.0000000000000D+00  0.0000000000000D+00
312  3.1100000000000D+00  0.0000000000000D+00  0.0000000000000D+00
313  3.1200000000000D+00  0.0000000000000D+00  0.0000000000000D+00
314  3.1300000000000D+00  0.0000000000000D+00  0.0000000000000D+00
315  3.1400000000000D+00  0.0000000000000D+00  0.0000000000000D+00
316  3.1500000000000D+00  0.0000000000000D+00  0.0000000000000D+00
317  3.1600000000000D+00  0.0000000000000D+00  0.0000000000000D+00
318  3.1700000000000D+00  0.0000000000000D+00  0.0000000000000D+00
319  3.1800000000000D+00  0.0000000000000D+00  0.0000000000000D+00
320  3.1900000000000D+00  0.0000000000000D+00  0.0000000000000D+00
321  3.2000000000000D+00  0.0000000000000D+00  0.0000000000000D+00
322  3.2100000000000D+00  0.0000000000000D+00  0.0000000000000D+00
323  3.2200000000000D+00  0.0000000000000D+00  0.0000000000000D+00
324  3.2300000000000D+00  0.0000000000000D+00  0.0000000000000D+00
325  3.2400000000000D+00  0.0000000000000D+00  0.0000000000000D+00
326  3.2500000000000D+00  0.0000000000000D+00  0.0000000000000D+00
327  3.2600000000000D+00  0.0000000000000D+00  0.0000000000000D+00
328  3.2700000000000D+00  0.0000000000000D+00  0.0000000000000D+00
329  3.2800000000000D+00  0.0000000000000D+00  0.0000000000000D+00
330  3.2900000000000D+00  0.0000000000000D+00  0.0000000000000D+00
331  3.3000000000000D+00  0.0000000000000D+00  0.0000000000000D+00
332  3.3100000000000D+00  0.0000000000000D+00  0.0000000000000D+00
333  3.3200000000000D+00  0.0000000000000D+00  0.0000000000000D+00
334  3.3300000000000D+00  0.0000000000000D+00  0.0000000000000D+00
335  3.3400000000000D+00  0.0000000000000D+00  0.0000000000000D+00
336  3.3500000000000D+00  0.0000000000000D+00  0.0000000000000D+00
337  3.3600000000000D+00  0.0000000000000D+00  0.0000000000000D+00
338  3.3700000000000D+00  0.0000000000000D+00  0.0000000000000D+00
339  3.3800000000000D+00  0.0000000000000D+00  0.0000000000000D+00
340  3.3900000000000D+00  0.0000000000000D+00  0.0000000000000D+00
341  3.4000000000000D+00  0.0000000000000D+00  0.0000000000000D+00
342  3.4100000000000D+00  0.0000000000000D+00  0.0000000000000D+00
343  3.4200000000000D+00  0.0000000000000D+00  0.0000000000000D+00
344  3.4300000000000D+00  0.0000000000000D+00  0.0000000000000D+00
345  3.4400000000000D+00  0.0000000000000D+00  0.0000000000000D+00
346  3.4500000000000D+00  0.0000000000000D+00  0.0000000000000D+00
347  3.4600000000000D+00  0.0000000000000D+00  0.0000000000000D+00
348  3.4700000000000D+00  0.0000000000000D+00  0.0000000000000D+00
349  3.4800000000000D+00  0.0000000000000D+00  0.0000000000000D+00
350  3.4900000000000D+00  0.0000000000000D+00  0.0000000000000D+00
351  3.5000000000000D+00  0.0000000000000D+00  0.0000000000000D+00
352  3.5100000000000D+00  0.0000000000000D+00  0.0000000000000D+00
353  3.5200000000000D+00  0.0000000000000D+00  0.0000000000000D+00
354  3.5300000000000D+00  0.0000000000000D+00  0.0000000000000D+00
355  3.5400000000000D+00  0.0000000000000D+00  0.0000000000000D+00
356  3.5500000000000D+00  0.0000000000000D+00  0.0000000000000D+00
357  3.5600000000000D+00  0.0000000000000D+00  0.0000000000000D+00
358  3.5700000000000D+00  0.0000000000000D+00  0.0000000000000D+00
359  3.5800000000000D+00  0.0000000000000D+00  0.0000000000000D+00
360  3.5900000000000D+00  0.0000000000000D+00  0.0000000000000D+00
361  3.6000000000000D+00  0.0000000000000D+00  0.0000000000000D+00
362  3.6100000000000D+00  0.0000000000000D+00  0.0000000000000D+00
363  3.6200000000000D+00  0.0000000000000D+00  0.0000000000000D+00
364  3.6300000000000D+00  0.0000000000000D+00  0.0000000000000D+00
365  3.6400000000000D+00  0.0000000000000D+00  0.0000000000000D+00
366  3.6500000000000D+00  0.0000000000000D+00  0.0000000000000D+00
367  3.6600000000000D+00  0.0000000000000D+00  0.0000000000000D+00
368  3.6700000000000D+00  0.0000000000000D+00  0.0000000000000D+00
369  3.6800000000000D+00  0.0000000000000D+00  0.0000000000000D+00
370  3.6900000000000D+00  0.0000000000000D+00  0.0000000000000D+00
371  3.7000000000000D+00  0.0000000000000D+00  0.0000000000000D+00
372  3.7100000000000D+00  0.0000000000000D+00  0.0000000000000D+00
373  3.7200000000000D+00  0.0000000000000D+00  0.0000000000000D+00
374  3.7300000000000D+00  0.0000000000000D+00  0.0000000000000D+00
375  3.7400000000000D+00  0.0000000000000D+00  0.0000000000000D+00
376  3.7500000000000D+00  0.0000000000000D+00  0.0000000000000D+00
377  3.7600000000000D+00  0.0000000000000D+00  0.0000000000000D+00
378  3.7700000000000D+00  0.0000000000000D+00  0.0000000000000D+00
379  3.7800000000000D+00  0.0000000000000D+00  0.0000000000000D+00
380  3.7900000000000D+00  0.0000000000000D+00  0.0000000000000D+00
381  3.8000000000000D+00  0.0000000000000D+00  0.0000000000000D+00
382  3.8100000000000D+00  0.0000000000000D+00  0.0000000000000D+00
383  3.8200000000000D+00  0.0000000000000D+00  0.0000000000000D+00
384  3.8300000000000D+00  0.0000000000000D+00  0.0000000000000D+00
385  3.8400000000000D+00  0.0000000000000D+00  0.0000000000000D+00
386  3.8500000000000D+00  0.0000000000000D+00  0.0000000000000D+00
387  3.8600000000000D+00  0.0000000000000D+00  0.0000000000000D+00
388  3.8700000000000D+00  0.0000000000000D+00  0.0000000000000D+00
389  3.8800000000000D+00  0.0000000000000D+00  0.0000000000000D+00
390  3.8900000000000D+00  0.0000000000000D+00  0.0000000000000D+00
391  3.9000000000000D+00  0.0000000000000D+00  0.0000000000000D+00
392  3.9100000000000D+00  0.0000000000000D+00  0.0000000000000D+00
393  3.9200000000000D+00  0.0000000000000D+00  0.0000000000000D+00
394  3.9300000000000D+00  0.0000000000000D+00  0.0000000000000D+00
395  3.9400000000000D+00  0.0000000000000D+00  0.0000000000000D+00
396  3.9500000000000D+00  0.0000000000000D+00  0.0000000000000D+00
397  3.9600000000000D+00  0.0000000000000D+00  0.0000000000000D+00
398  3.9700000000000D+00  0.0000000000000D+00  0.0000000000000D+00
399  3.9800000000000D+00  0.0000000000000D+00  0.0000000000000D+00
400  3.9900000000000D+00  0.0000000000000D+00  0.0000000000000D+00
401  4.0000000000000D+00  0.0000000000000D+00  0.0000000000000D+00
402  4.0100000000000D+00  0.0000000000000D+00  0.0000000000000D+00
403  4.0200000000000D+00  0.0000000000000D+00  0.0000000000000D+00
404  4.0300000000000D+00  0.0000000000000D+00  0.0000000000000D+00
405  4.0400000000000D+00  0.0000000000000D+00  0.0000000000000D+00
406  4.0500000000000D+00  0.0000000000000D+00  0.0000000000000D+00
407  4.0600000000000D+00  0.0000000000000D+00  0.0000000000000D+00
408  4.0700000000000D+00  0.0000000000000D+00  0.0000000000000D+00
409  4.0800000000000D+00  0.0000000000000D+00  0.0000000000000D+00
410  4.0900000000000D+00  0.0000000000000D+00  0.0000000000000D+00
411  4.1000000000000D+00  0.0000000000000D+00  0.0000000000000D+00
412  4.1100000000000D+00  0.0000000000000D+00  0.0000000000000D+00
413  4.1200000000000D+00  0.0000000000000D+00  0.0000000000000D+00
414  4.1300000000000D+00  0.0000000000000D+00  0.0000000000000D+00
415  4.1400000000000D+00  0.0000000000000D+00  0.0000000000000D+00
416  4.1500000000000D+00  0.0000000000000D+00  0.0000000000000D+00
417  4.1600000000000D+00  0.0000000000000D+00  0.0000000000000D+00
418  4.1700000000000D+00  0.0000000000000D+00  0.0000000000000D+00
419  4.1800000000000D+00  0.0000000000000D+00  0.0000000000000D+00
420  4.1900000000000D+00  0.0000000000000D+00  0.0000000000000D+00
421  4.2000000000000D+00  0.0000000000000D+00  0.0000000000000D+00
422  4.2100000000000D+00  0.0000000000000D+00  0.0000000000000D+00
423  4.2200000000000D+00  0.0000000000000D+00  0.0000000000000D+00
424  4.2300000000000D+00  0.0000000000000D+00  0.0000000000000D+00
425  4.2400000000000D+00  0.0000000000000D+00  0.0000000000000D+00
426  4.2500000000000D+00  0.0000000000000D+00  0.0000000000000D+00
427  4.2600000000000D+00  0.0000000000000D+00  0.0000000000000D+00
428  4.2700000000000D+00  0.0000000000000D+00  0.0000000000000D+00
429  4.2800000000000D+00  0.0000000000000D+00  0.0000000000000D+00
430  4.2900000000000D+00  0.0000000000000D+00  0.0000000000000D+00
431  4.3000000000000D+00  0.0000000000000D+00  0.0000000000000D+00
432  4.3100000000000D+00  0.0000000000000D+00  0.0000000000000D+00
433  4.3200000000000D+00  0.0000000000000D+00  0.0000000000000D+00
434  4.3300000000000D+00  0.0000000000000D+00  0.0000000000000D+00
435  4.3400000000000D+00  0.0000000000000D+00  0.0000000000000D+00
436  4.3500000000000D+00  0.0000000000000D+00  0.0000000000000D+00
437  4.3600000000000D+00  0.0000000000000D+00  0.0000000000000D+00
438  4.3700000000000D+00  0.0000000000000D+00  0.0000000000000D+00
439  4.3800000000000D+00  0.0000000000000D+00  0.0000000000000D+00
440  4.3900000000000D+00  0.0000000000000D+00  0.0000000000000D+00
441  4.4000000000000D+00  0.0000000000000D+00  0.0000000000000D+00
442  4.4100000000000D+00  0.0000000000000D+00  0.0000000000000D+00
443  4.4200000000000D+00  0.0000000000000D+00  0.0000000000000D+00