Zn    ONCVPSP-3.3.0  r_core=   1.35823   1.66358   1.85211
30.0000     20.0000      180430    zatom,zion,pspd
8 -116133   2     4   600     0    pspcod,pspxc,lmax,lloc,mmax,r2well
5.99000000  2.50000000  0.00000000    rchrg fchrg qchrg
2     2     2     0    nproj
3     1           extension_switch
4     2     0    nprojso
0                        -1.5166220924932D+00  2.8331554013873D+00
1  0.0000000000000D+00  6.3286123563877D-10  7.6546151639434D-09
2  1.0000000000000D-02  3.0512985886534D-02  8.8217884974654D-02
3  2.0000000000000D-02  6.1041109482585D-02  1.7622319492657D-01
4  3.0000000000000D-02  9.1599057898280D-02  2.6380132016311D-01
5  4.0000000000000D-02  1.2220062495154D-01  3.5073366090363D-01
6  5.0000000000000D-02  1.5285828412085D-01  4.3679582833125D-01
7  6.0000000000000D-02  1.8358278455113D-01  5.2175607531436D-01
8  7.0000000000000D-02  2.1438277703273D-01  6.0537402409023D-01
9  8.0000000000000D-02  2.4526447624050D-01  6.8739975054857D-01
10  9.0000000000000D-02  2.7623136475625D-01  7.6757327553419D-01
11  1.0000000000000D-01  3.0728394352063D-01  8.4562450302632D-01
12  1.1000000000000D-01  3.3841953238952D-01  9.2127363340117D-01
13  1.2000000000000D-01  3.6963212342741D-01  9.9423206752407D-01
14  1.3000000000000D-01  4.0091228847958D-01  1.0642038044487D+00
15  1.4000000000000D-01  4.3224714145094D-01  1.1308873223356D+00
16  1.5000000000000D-01  4.6362035460689D-01  1.1939779191620D+00
17  1.6000000000000D-01  4.9501222712650D-01  1.2531704771921D+00
18  1.7000000000000D-01  5.2639980310368D-01  1.3081626033268D+00
19  1.8000000000000D-01  5.5775703523285D-01  1.3586580866360D+00
20  1.9000000000000D-01  5.8905498955163D-01  1.4043706048739D+00
21  2.0000000000000D-01  6.2026208586469D-01  1.4450276038159D+00
22  2.1000000000000D-01  6.5134436785598D-01  1.4803742670441D+00
23  2.2000000000000D-01  6.8226579642506D-01  1.5101774895055D+00
24  2.3000000000000D-01  7.1298855946652D-01  1.5342297658954D+00
25  2.4000000000000D-01  7.4347339115695D-01  1.5523529047369D+00
26  2.5000000000000D-01  7.7367989382290D-01  1.5644014809759D+00
27  2.6000000000000D-01  8.0356685563631D-01  1.5702659439372D+00
28  2.7000000000000D-01  8.3309255771414D-01  1.5698753035379D+00
29  2.8000000000000D-01  8.6221506467912D-01  1.5631993255783D+00
30  2.9000000000000D-01  8.9089249335581D-01  1.5502501765800D+00
31  3.0000000000000D-01  9.1908325501493D-01  1.5310834697816D+00
32  3.1000000000000D-01  9.4674626742150D-01  1.5057986763032D+00
33  3.2000000000000D-01  9.7384113386700D-01  1.4745388788576D+00
34  3.3000000000000D-01  1.0003282873510D+00  1.4374898594220D+00
35  3.4000000000000D-01  1.0261690990979D+00  1.3948785266637D+00
36  3.5000000000000D-01  1.0513259516257D+00  1.3469707033003D+00
37  3.6000000000000D-01  1.0757622776001D+00  1.2940683076438D+00
38  3.7000000000000D-01  1.0994425666841D+00  1.2365059769859D+00
39  3.8000000000000D-01  1.1223323435040D+00  1.1746471929223D+00
40  3.9000000000000D-01  1.1443981206823D+00  1.1088799798858D+00
41  4.0000000000000D-01  1.1656073316006D+00  1.0396122577935D+00
42  4.1000000000000D-01  1.1859282481539D+00  9.6726693757709D-01
43  4.2000000000000D-01  1.2053298892048D+00  8.9227685426568D-01
44  4.3000000000000D-01  1.2237819257467D+00  8.1507963607187D-01
45  4.4000000000000D-01  1.2412545889235D+00  7.3611260949775D-01
46  4.5000000000000D-01  1.2577185870210D+00  6.5580783977341D-01
47  4.6000000000000D-01  1.2731450373544D+00  5.7458740296953D-01
48  4.7000000000000D-01  1.2875054186168D+00  4.9285898094323D-01
49  4.8000000000000D-01  1.3007715487396D+00  4.1101186298804D-01
50  4.9000000000000D-01  1.3129155926596D+00  3.2941342882000D-01
51  5.0000000000000D-01  1.3239101036007D+00  2.4840617655265D-01
52  5.1000000000000D-01  1.3337281005779D+00  1.6830534682793D-01
53  5.2000000000000D-01  1.3423431838448D+00  8.9397180569759D-02
54  5.3000000000000D-01  1.3497296889468D+00  1.1937833220930D-02
55  5.4000000000000D-01  1.3558628789465D+00 -6.3847046844861D-02
56  5.5000000000000D-01  1.3607191732700D+00 -1.3776208345216D-01
57  5.6000000000000D-01  1.3642764105221D+00 -2.0964130423768D-01
58  5.7000000000000D-01  1.3665141415511D+00 -2.7934667646613D-01
59  5.8000000000000D-01  1.3674139480458D+00 -3.4676609864389D-01
60  5.9000000000000D-01  1.3669597810331D+00 -4.1181091225839D-01
61  6.0000000000000D-01  1.3651383128516D+00 -4.7441300918327D-01
62  6.1000000000000D-01  1.3619392955103D+00 -5.3452161976760D-01
63  6.2000000000000D-01  1.3573559178335D+00 -5.9209987407013D-01
64  6.3000000000000D-01  1.3513851534497D+00 -6.4712123399112D-01
65  6.4000000000000D-01  1.3440280915183D+00 -6.9956589698107D-01
66  6.5000000000000D-01  1.3352902421075D+00 -7.4941727254260D-01
67  6.6000000000000D-01  1.3251818083516D+00 -7.9665863080246D-01
68  6.7000000000000D-01  1.3137179179063D+00 -8.4127001810935D-01
69  6.8000000000000D-01  1.3009188068027D+00 -8.8322552791409D-01
70  6.9000000000000D-01  1.2868099495486D+00 -9.2249100631677D-01
71  7.0000000000000D-01  1.2714221302336D+00 -9.5902226075598D-01
72  7.1000000000000D-01  1.2547914504327D+00 -9.9276382773519D-01
73  7.2000000000000D-01  1.2369592708732D+00 -1.0236483412585D+00
74  7.3000000000000D-01  1.2179720850824D+00 -1.0515965284272D+00
75  7.4000000000000D-01  1.1978813245541D+00 -1.0765178425359D+00
76  7.5000000000000D-01  1.1767430963363D+00 -1.0983117274727D+00
77  7.6000000000000D-01  1.1546178553070D+00 -1.1168694907064D+00
78  7.7000000000000D-01  1.1315700147557D+00 -1.1320767458937D+00
79  7.8000000000000D-01  1.1076675001830D+00 -1.1438163706866D+00
80  7.9000000000000D-01  1.0829812524410D+00 -1.1519719109804D+00
81  8.0000000000000D-01  1.0575846874471D+00 -1.1564313499626D+00
82  8.1000000000000D-01  1.0315531206696D+00 -1.1570911492395D+00
83  8.2000000000000D-01  1.0049631653991D+00 -1.1538604603227D+00
84  8.3000000000000D-01  9.7789211445315D-01 -1.1466653980751D+00
85  8.4000000000000D-01  9.5041731540585D-01 -1.1354532635401D+00
86  8.5000000000000D-01  9.2261554967193D-01 -1.1201966020462D+00
87  8.6000000000000D-01  8.9456242580072D-01 -1.1008969836494D+00
88  8.7000000000000D-01  8.6633179714833D-01 -1.0775883968681D+00
89  8.8000000000000D-01  8.3799521369623D-01 -1.0503401532222D+00
90  8.9000000000000D-01  8.0962141717935D-01 -1.0192592091898D+00
91  9.0000000000000D-01  7.8127588788822D-01 -9.8449182366945D-01
92  9.1000000000000D-01  7.5302045053303D-01 -9.4622448264697D-01
93  9.2000000000000D-01  7.2491294542312D-01 -9.0468403822519D-01
94  9.3000000000000D-01  6.9700696994689D-01 -8.6013702615699D-01
95  9.4000000000000D-01  6.6935169396032D-01 -8.1288814414773D-01
96  9.5000000000000D-01  6.4199175123776D-01 -7.6327789206789D-01
97  9.6000000000000D-01  6.1496720763880D-01 -7.1167939438263D-01
98  9.7000000000000D-01  5.8831360511266D-01 -6.5849444436356D-01
99  9.8000000000000D-01  5.6206207919504D-01 -6.0414882778003D-01
100  9.9000000000000D-01  5.3623954616679D-01 -5.4908700175583D-01
101  1.0000000000000D+00  5.1086895469247D-01 -4.9376622042177D-01
102  1.0100000000000D+00  4.8596959550037D-01 -4.3865021336849D-01
103  1.0200000000000D+00  4.6155746154477D-01 -3.8420253518747D-01
104  1.0300000000000D+00  4.3764565013678D-01 -3.3087971420610D-01
105  1.0400000000000D+00  4.1424479775637D-01 -2.7912433556454D-01
106  1.0500000000000D+00  3.9136353771039D-01 -2.2935819804459D-01
107  1.0600000000000D+00  3.6900897040181D-01 -1.8197568543818D-01
108  1.0700000000000D+00  3.4718713587956D-01 -1.3733749114454D-01
109  1.0800000000000D+00  3.2590347839880D-01 -9.5764830037563D-02
110  1.0900000000000D+00  3.0516329309733D-01 -5.7534262561757D-02
111  1.1000000000000D+00  2.8497214527598D-01 -2.2873247740089D-02
112  1.1100000000000D+00  2.6533625365299D-01  8.0434746511940D-03
113  1.1200000000000D+00  2.4626282976469D-01  3.5096586285017D-02
114  1.1300000000000D+00  2.2776036688649D-01  5.8223910466516D-02
115  1.1400000000000D+00  2.0983887285781D-01  7.7421100270116D-02
116  1.1500000000000D+00  1.9251004269528D-01  9.2741268366872D-02
117  1.1600000000000D+00  1.7578736824192D-01  1.0429355320963D-01
118  1.1700000000000D+00  1.5968618368529D-01  1.1224064017264D-01
119  1.1800000000000D+00  1.4422364683275D-01  1.1679527213693D-01
120  1.1900000000000D+00  1.2941865802476D-01  1.1821581334832D-01
121  1.2000000000000D+00  1.1529171973030D-01  1.1680094694133D-01
122  1.2100000000000D+00  1.0186474118787D-01  1.1288360522386D-01
123  1.2200000000000D+00  8.9160793547617D-02  1.0682424732794D-01
124  1.2300000000000D+00  7.7203822463749D-02  9.9003619022712D-02
125  1.2400000000000D+00  6.6018325673958D-02  8.9815136448856D-02
126  1.2500000000000D+00  5.5629003689803D-02  7.9657043865148D-02
127  1.2600000000000D+00  4.6060392823036D-02  6.8924508071648D-02
128  1.2700000000000D+00  3.7336489933534D-02  5.8001809568271D-02
129  1.2800000000000D+00  2.9480375318939D-02  4.7254771359395D-02
130  1.2900000000000D+00  2.2513853629859D-02  3.7023663154408D-02
131  1.3000000000000D+00  1.6457079461297D-02  2.7616395859338D-02
132  1.3100000000000D+00  1.1328324889647D-02  1.9303313831540D-02
133  1.3200000000000D+00  7.1462807740481D-03  1.2315535805801D-02
134  1.3300000000000D+00  3.9049877142264D-03  6.7958288794047D-03
135  1.3400000000000D+00  1.6453607597822D-03  2.9179808688717D-03
136  1.3500000000000D+00  4.2586539437547D-04  8.3698616695873D-04
137  1.3600000000000D+00 -3.1448210183110D-07  9.3417131222245D-05
138  1.3700000000000D+00 -2.8036048951087D-05 -2.0599827254664D-05
139  1.3800000000000D+00  1.4652649378142D-05  1.4552330841140D-05
140  1.3900000000000D+00  2.7286886002381D-06  2.9941261973741D-06
141  1.4000000000000D+00 -2.6795748459721D-06 -2.1990498610070D-06
142  1.4100000000000D+00 -4.7280484144126D-08 -2.1701610092878D-07
143  1.4200000000000D+00 -7.2841176706815D-08 -3.3433896547655D-07
144  1.4300000000000D+00  0.0000000000000D+00  0.0000000000000D+00
145  1.4400000000000D+00  0.0000000000000D+00  0.0000000000000D+00
146  1.4500000000000D+00  0.0000000000000D+00  0.0000000000000D+00
147  1.4600000000000D+00  0.0000000000000D+00  0.0000000000000D+00
148  1.4700000000000D+00  0.0000000000000D+00  0.0000000000000D+00
149  1.4800000000000D+00  0.0000000000000D+00  0.0000000000000D+00
150  1.4900000000000D+00  0.0000000000000D+00  0.0000000000000D+00
151  1.5000000000000D+00  0.0000000000000D+00  0.0000000000000D+00
152  1.5100000000000D+00  0.0000000000000D+00  0.0000000000000D+00
153  1.5200000000000D+00  0.0000000000000D+00  0.0000000000000D+00
154  1.5300000000000D+00  0.0000000000000D+00  0.0000000000000D+00
155  1.5400000000000D+00  0.0000000000000D+00  0.0000000000000D+00
156  1.5500000000000D+00  0.0000000000000D+00  0.0000000000000D+00
157  1.5600000000000D+00  0.0000000000000D+00  0.0000000000000D+00
158  1.5700000000000D+00  0.0000000000000D+00  0.0000000000000D+00
159  1.5800000000000D+00  0.0000000000000D+00  0.0000000000000D+00
160  1.5900000000000D+00  0.0000000000000D+00  0.0000000000000D+00
161  1.6000000000000D+00  0.0000000000000D+00  0.0000000000000D+00
162  1.6100000000000D+00  0.0000000000000D+00  0.0000000000000D+00
163  1.6200000000000D+00  0.0000000000000D+00  0.0000000000000D+00
164  1.6300000000000D+00  0.0000000000000D+00  0.0000000000000D+00
165  1.6400000000000D+00  0.0000000000000D+00  0.0000000000000D+00
166  1.6500000000000D+00  0.0000000000000D+00  0.0000000000000D+00
167  1.6600000000000D+00  0.0000000000000D+00  0.0000000000000D+00
168  1.6700000000000D+00  0.0000000000000D+00  0.0000000000000D+00
169  1.6800000000000D+00  0.0000000000000D+00  0.0000000000000D+00
170  1.6900000000000D+00  0.0000000000000D+00  0.0000000000000D+00
171  1.7000000000000D+00  0.0000000000000D+00  0.0000000000000D+00
172  1.7100000000000D+00  0.0000000000000D+00  0.0000000000000D+00
173  1.7200000000000D+00  0.0000000000000D+00  0.0000000000000D+00
174  1.7300000000000D+00  0.0000000000000D+00  0.0000000000000D+00
175  1.7400000000000D+00  0.0000000000000D+00  0.0000000000000D+00
176  1.7500000000000D+00  0.0000000000000D+00  0.0000000000000D+00
177  1.7600000000000D+00  0.0000000000000D+00  0.0000000000000D+00
178  1.7700000000000D+00  0.0000000000000D+00  0.0000000000000D+00
179  1.7800000000000D+00  0.0000000000000D+00  0.0000000000000D+00
180  1.7900000000000D+00  0.0000000000000D+00  0.0000000000000D+00
181  1.8000000000000D+00  0.0000000000000D+00  0.0000000000000D+00
182  1.8100000000000D+00  0.0000000000000D+00  0.0000000000000D+00
183  1.8200000000000D+00  0.0000000000000D+00  0.0000000000000D+00
184  1.8300000000000D+00  0.0000000000000D+00  0.0000000000000D+00
185  1.8400000000000D+00  0.0000000000000D+00  0.0000000000000D+00
186  1.8500000000000D+00  0.0000000000000D+00  0.0000000000000D+00
187  1.8600000000000D+00  0.0000000000000D+00  0.0000000000000D+00
188  1.8700000000000D+00  0.0000000000000D+00  0.0000000000000D+00
189  1.8800000000000D+00  0.0000000000000D+00  0.0000000000000D+00
190  1.8900000000000D+00  0.0000000000000D+00  0.0000000000000D+00
191  1.9000000000000D+00  0.0000000000000D+00  0.0000000000000D+00
192  1.9100000000000D+00  0.0000000000000D+00  0.0000000000000D+00
193  1.9200000000000D+00  0.0000000000000D+00  0.0000000000000D+00
194  1.9300000000000D+00  0.0000000000000D+00  0.0000000000000D+00
195  1.9400000000000D+00  0.0000000000000D+00  0.0000000000000D+00
196  1.9500000000000D+00  0.0000000000000D+00  0.0000000000000D+00
197  1.9600000000000D+00  0.0000000000000D+00  0.0000000000000D+00
198  1.9700000000000D+00  0.0000000000000D+00  0.0000000000000D+00
199  1.9800000000000D+00  0.0000000000000D+00  0.0000000000000D+00
200  1.9900000000000D+00  0.0000000000000D+00  0.0000000000000D+00
201  2.0000000000000D+00  0.0000000000000D+00  0.0000000000000D+00
202  2.0100000000000D+00  0.0000000000000D+00  0.0000000000000D+00
203  2.0200000000000D+00  0.0000000000000D+00  0.0000000000000D+00
204  2.0300000000000D+00  0.0000000000000D+00  0.0000000000000D+00
205  2.0400000000000D+00  0.0000000000000D+00  0.0000000000000D+00
206  2.0500000000000D+00  0.0000000000000D+00  0.0000000000000D+00
207  2.0600000000000D+00  0.0000000000000D+00  0.0000000000000D+00
208  2.0700000000000D+00  0.0000000000000D+00  0.0000000000000D+00
209  2.0800000000000D+00  0.0000000000000D+00  0.0000000000000D+00
210  2.0900000000000D+00  0.0000000000000D+00  0.0000000000000D+00
211  2.1000000000000D+00  0.0000000000000D+00  0.0000000000000D+00
212  2.1100000000000D+00  0.0000000000000D+00  0.0000000000000D+00
213  2.1200000000000D+00  0.0000000000000D+00  0.0000000000000D+00
214  2.1300000000000D+00  0.0000000000000D+00  0.0000000000000D+00
215  2.1400000000000D+00  0.0000000000000D+00  0.0000000000000D+00
216  2.1500000000000D+00  0.0000000000000D+00  0.0000000000000D+00
217  2.1600000000000D+00  0.0000000000000D+00  0.0000000000000D+00
218  2.1700000000000D+00  0.0000000000000D+00  0.0000000000000D+00
219  2.1800000000000D+00  0.0000000000000D+00  0.0000000000000D+00
220  2.1900000000000D+00  0.0000000000000D+00  0.0000000000000D+00
221  2.2000000000000D+00  0.0000000000000D+00  0.0000000000000D+00
222  2.2100000000000D+00  0.0000000000000D+00  0.0000000000000D+00
223  2.2200000000000D+00  0.0000000000000D+00  0.0000000000000D+00
224  2.2300000000000D+00  0.0000000000000D+00  0.0000000000000D+00
225  2.2400000000000D+00  0.0000000000000D+00  0.0000000000000D+00
226  2.2500000000000D+00  0.0000000000000D+00  0.0000000000000D+00
227  2.2600000000000D+00  0.0000000000000D+00  0.0000000000000D+00
228  2.2700000000000D+00  0.0000000000000D+00  0.0000000000000D+00
229  2.2800000000000D+00  0.0000000000000D+00  0.0000000000000D+00
230  2.2900000000000D+00  0.0000000000000D+00  0.0000000000000D+00
231  2.3000000000000D+00  0.0000000000000D+00  0.0000000000000D+00
232  2.3100000000000D+00  0.0000000000000D+00  0.0000000000000D+00
233  2.3200000000000D+00  0.0000000000000D+00  0.0000000000000D+00
234  2.3300000000000D+00  0.0000000000000D+00  0.0000000000000D+00
235  2.3400000000000D+00  0.0000000000000D+00  0.0000000000000D+00
236  2.3500000000000D+00  0.0000000000000D+00  0.0000000000000D+00
237  2.3600000000000D+00  0.0000000000000D+00  0.0000000000000D+00
238  2.3700000000000D+00  0.0000000000000D+00  0.0000000000000D+00
239  2.3800000000000D+00  0.0000000000000D+00  0.0000000000000D+00
240  2.3900000000000D+00  0.0000000000000D+00  0.0000000000000D+00
241  2.4000000000000D+00  0.0000000000000D+00  0.0000000000000D+00
242  2.4100000000000D+00  0.0000000000000D+00  0.0000000000000D+00
243  2.4200000000000D+00  0.0000000000000D+00  0.0000000000000D+00
244  2.4300000000000D+00  0.0000000000000D+00  0.0000000000000D+00
245  2.4400000000000D+00  0.0000000000000D+00  0.0000000000000D+00
246  2.4500000000000D+00  0.0000000000000D+00  0.0000000000000D+00
247  2.4600000000000D+00  0.0000000000000D+00  0.0000000000000D+00
248  2.4700000000000D+00  0.0000000000000D+00  0.0000000000000D+00
249  2.4800000000000D+00  0.0000000000000D+00  0.0000000000000D+00
250  2.4900000000000D+00  0.0000000000000D+00  0.0000000000000D+00
251  2.5000000000000D+00  0.0000000000000D+00  0.0000000000000D+00
252  2.5100000000000D+00  0.0000000000000D+00  0.0000000000000D+00
253  2.5200000000000D+00  0.0000000000000D+00  0.0000000000000D+00
254  2.5300000000000D+00  0.0000000000000D+00  0.0000000000000D+00
255  2.5400000000000D+00  0.0000000000000D+00  0.0000000000000D+00
256  2.5500000000000D+00  0.0000000000000D+00  0.0000000000000D+00
257  2.5600000000000D+00  0.0000000000000D+00  0.0000000000000D+00
258  2.5700000000000D+00  0.0000000000000D+00  0.0000000000000D+00
259  2.5800000000000D+00  0.0000000000000D+00  0.0000000000000D+00
260  2.5900000000000D+00  0.0000000000000D+00  0.0000000000000D+00
261  2.6000000000000D+00  0.0000000000000D+00  0.0000000000000D+00
262  2.6100000000000D+00  0.0000000000000D+00  0.0000000000000D+00
263  2.6200000000000D+00  0.0000000000000D+00  0.0000000000000D+00
264  2.6300000000000D+00  0.0000000000000D+00  0.0000000000000D+00
265  2.6400000000000D+00  0.0000000000000D+00  0.0000000000000D+00
266  2.6500000000000D+00  0.0000000000000D+00  0.0000000000000D+00
267  2.6600000000000D+00  0.0000000000000D+00  0.0000000000000D+00
268  2.6700000000000D+00  0.0000000000000D+00  0.0000000000000D+00
269  2.6800000000000D+00  0.0000000000000D+00  0.0000000000000D+00
270  2.6900000000000D+00  0.0000000000000D+00  0.0000000000000D+00
271  2.7000000000000D+00  0.0000000000000D+00  0.0000000000000D+00
272  2.7100000000000D+00  0.0000000000000D+00  0.0000000000000D+00
273  2.7200000000000D+00  0.0000000000000D+00  0.0000000000000D+00
274  2.7300000000000D+00  0.0000000000000D+00  0.0000000000000D+00
275  2.7400000000000D+00  0.0000000000000D+00  0.0000000000000D+00
276  2.7500000000000D+00  0.0000000000000D+00  0.0000000000000D+00
277  2.7600000000000D+00  0.0000000000000D+00  0.0000000000000D+00
278  2.7700000000000D+00  0.0000000000000D+00  0.0000000000000D+00
279  2.7800000000000D+00  0.0000000000000D+00  0.0000000000000D+00
280  2.7900000000000D+00  0.0000000000000D+00  0.0000000000000D+00
281  2.8000000000000D+00  0.0000000000000D+00  0.0000000000000D+00
282  2.8100000000000D+00  0.0000000000000D+00  0.0000000000000D+00
283  2.8200000000000D+00  0.0000000000000D+00  0.0000000000000D+00
284  2.8300000000000D+00  0.0000000000000D+00  0.0000000000000D+00
285  2.8400000000000D+00  0.0000000000000D+00  0.0000000000000D+00
286  2.8500000000000D+00  0.0000000000000D+00  0.0000000000000D+00
287  2.8600000000000D+00  0.0000000000000D+00  0.0000000000000D+00
288  2.8700000000000D+00  0.0000000000000D+00  0.0000000000000D+00
289  2.8800000000000D+00  0.0000000000000D+00  0.0000000000000D+00
290  2.8900000000000D+00  0.0000000000000D+00  0.0000000000000D+00
291  2.9000000000000D+00  0.0000000000000D+00  0.0000000000000D+00
292  2.9100000000000D+00  0.0000000000000D+00  0.0000000000000D+00
293  2.9200000000000D+00  0.0000000000000D+00  0.0000000000000D+00
294  2.9300000000000D+00  0.0000000000000D+00  0.0000000000000D+00
295  2.9400000000000D+00  0.0000000000000D+00  0.0000000000000D+00
296  2.9500000000000D+00  0.0000000000000D+00  0.0000000000000D+00
297  2.9600000000000D+00  0.0000000000000D+00  0.0000000000000D+00
298  2.9700000000000D+00  0.0000000000000D+00  0.0000000000000D+00
299  2.9800000000000D+00  0.0000000000000D+00  0.0000000000000D+00
300  2.9900000000000D+00  0.0000000000000D+00  0.0000000000000D+00
301  3.0000000000000D+00  0.0000000000000D+00  0.0000000000000D+00
302  3.0100000000000D+00  0.0000000000000D+00  0.0000000000000D+00
303  3.0200000000000D+00  0.0000000000000D+00  0.0000000000000D+00
304  3.0300000000000D+00  0.0000000000000D+00  0.0000000000000D+00
305  3.0400000000000D+00  0.0000000000000D+00  0.0000000000000D+00
306  3.0500000000000D+00  0.0000000000000D+00  0.0000000000000D+00
307  3.0600000000000D+00  0.0000000000000D+00  0.0000000000000D+00
308  3.0700000000000D+00  0.0000000000000D+00  0.0000000000000D+00
309  3.0800000000000D+00  0.0000000000000D+00  0.0000000000000D+00
310  3.0900000000000D+00  0.0000000000000D+00  0.0000000000000D+00
311  3.1000000000000D+00  0.0000000000000D+00  0.0000000000000D+00
312  3.1100000000000D+00  0.0000000000000D+00  0.0000000000000D+00
313  3.1200000000000D+00  0.0000000000000D+00  0.0000000000000D+00
314  3.1300000000000D+00  0.0000000000000D+00  0.0000000000000D+00
315  3.1400000000000D+00  0.0000000000000D+00  0.0000000000000D+00
316  3.1500000000000D+00  0.0000000000000D+00  0.0000000000000D+00
317  3.1600000000000D+00  0.0000000000000D+00  0.0000000000000D+00
318  3.1700000000000D+00  0.0000000000000D+00  0.0000000000000D+00
319  3.1800000000000D+00  0.0000000000000D+00  0.0000000000000D+00
320  3.1900000000000D+00  0.0000000000000D+00  0.0000000000000D+00
321  3.2000000000000D+00  0.0000000000000D+00  0.0000000000000D+00
322  3.2100000000000D+00  0.0000000000000D+00  0.0000000000000D+00
323  3.2200000000000D+00  0.0000000000000D+00  0.0000000000000D+00
324  3.2300000000000D+00  0.0000000000000D+00  0.0000000000000D+00
325  3.2400000000000D+00  0.0000000000000D+00  0.0000000000000D+00
326  3.2500000000000D+00  0.0000000000000D+00  0.0000000000000D+00
327  3.2600000000000D+00  0.0000000000000D+00  0.0000000000000D+00
328  3.2700000000000D+00  0.0000000000000D+00  0.0000000000000D+00
329  3.2800000000000D+00  0.0000000000000D+00  0.0000000000000D+00
330  3.2900000000000D+00  0.0000000000000D+00  0.0000000000000D+00
331  3.3000000000000D+00  0.0000000000000D+00  0.0000000000000D+00
332  3.3100000000000D+00  0.0000000000000D+00  0.0000000000000D+00
333  3.3200000000000D+00  0.0000000000000D+00  0.0000000000000D+00
334  3.3300000000000D+00  0.0000000000000D+00  0.0000000000000D+00
335  3.3400000000000D+00  0.0000000000000D+00  0.0000000000000D+00
336  3.3500000000000D+00  0.0000000000000D+00  0.0000000000000D+00
337  3.3600000000000D+00  0.0000000000000D+00  0.0000000000000D+00
338  3.3700000000000D+00  0.0000000000000D+00  0.0000000000000D+00
339  3.3800000000000D+00  0.0000000000000D+00  0.0000000000000D+00
340  3.3900000000000D+00  0.0000000000000D+00  0.0000000000000D+00
341  3.4000000000000D+00  0.0000000000000D+00  0.0000000000000D+00
342  3.4100000000000D+00  0.0000000000000D+00  0.0000000000000D+00
343  3.4200000000000D+00  0.0000000000000D+00  0.0000000000000D+00
344  3.4300000000000D+00  0.0000000000000D+00  0.0000000000000D+00
345  3.4400000000000D+00  0.0000000000000D+00  0.0000000000000D+00
346  3.4500000000000D+00  0.0000000000000D+00  0.0000000000000D+00
347  3.4600000000000D+00  0.0000000000000D+00  0.0000000000000D+00
348  3.4700000000000D+00  0.0000000000000D+00  0.0000000000000D+00
349  3.4800000000000D+00  0.0000000000000D+00  0.0000000000000D+00
350  3.4900000000000D+00  0.0000000000000D+00  0.0000000000000D+00
351  3.5000000000000D+00  0.0000000000000D+00  0.0000000000000D+00
352  3.5100000000000D+00  0.0000000000000D+00  0.0000000000000D+00
353  3.5200000000000D+00  0.0000000000000D+00  0.0000000000000D+00
354  3.5300000000000D+00  0.0000000000000D+00  0.0000000000000D+00
355  3.5400000000000D+00  0.0000000000000D+00  0.0000000000000D+00
356  3.5500000000000D+00  0.0000000000000D+00  0.0000000000000D+00
357  3.5600000000000D+00  0.0000000000000D+00  0.0000000000000D+00
358  3.5700000000000D+00  0.0000000000000D+00  0.0000000000000D+00
359  3.5800000000000D+00  0.0000000000000D+00  0.0000000000000D+00
360  3.5900000000000D+00  0.0000000000000D+00  0.0000000000000D+00
361  3.6000000000000D+00  0.0000000000000D+00  0.0000000000000D+00
362  3.6100000000000D+00  0.0000000000000D+00  0.0000000000000D+00
363  3.6200000000000D+00  0.0000000000000D+00  0.0000000000000D+00
364  3.6300000000000D+00  0.0000000000000D+00  0.0000000000000D+00
365  3.6400000000000D+00  0.0000000000000D+00  0.0000000000000D+00
366  3.6500000000000D+00  0.0000000000000D+00  0.0000000000000D+00
367  3.6600000000000D+00  0.0000000000000D+00  0.0000000000000D+00
368  3.6700000000000D+00  0.0000000000000D+00  0.0000000000000D+00
369  3.6800000000000D+00  0.0000000000000D+00  0.0000000000000D+00
370  3.6900000000000D+00  0.0000000000000D+00  0.0000000000000D+00
371  3.7000000000000D+00  0.0000000000000D+00  0.0000000000000D+00
372  3.7100000000000D+00  0.0000000000000D+00  0.0000000000000D+00
373  3.7200000000000D+00  0.0000000000000D+00  0.0000000000000D+00
374  3.7300000000000D+00  0.0000000000000D+00  0.0000000000000D+00
375  3.7400000000000D+00  0.0000000000000D+00  0.0000000000000D+00
376  3.7500000000000D+00  0.0000000000000D+00  0.0000000000000D+00
377  3.7600000000000D+00  0.0000000000000D+00  0.0000000000000D+00
378  3.7700000000000D+00  0.0000000000000D+00  0.0000000000000D+00
379  3.7800000000000D+00  0.0000000000000D+00  0.0000000000000D+00
380  3.7900000000000D+00  0.0000000000000D+00  0.0000000000000D+00
381  3.8000000000000D+00  0.0000000000000D+00  0.0000000000000D+00
382  3.8100000000000D+00  0.0000000000000D+00  0.0000000000000D+00
383  3.8200000000000D+00  0.0000000000000D+00  0.0000000000000D+00
384  3.8300000000000D+00  0.0000000000000D+00  0.0000000000000D+00
385  3.8400000000000D+00  0.0000000000000D+00  0.0000000000000D+00
386  3.8500000000000D+00  0.0000000000000D+00  0.0000000000000D+00
387  3.8600000000000D+00  0.0000000000000D+00  0.0000000000000D+00
388  3.8700000000000D+00  0.0000000000000D+00  0.0000000000000D+00
389  3.8800000000000D+00  0.0000000000000D+00  0.0000000000000D+00
390  3.8900000000000D+00  0.0000000000000D+00  0.0000000000000D+00
391  3.9000000000000D+00  0.0000000000000D+00  0.0000000000000D+00
392  3.9100000000000D+00  0.0000000000000D+00  0.0000000000000D+00
393  3.9200000000000D+00  0.0000000000000D+00  0.0000000000000D+00
394  3.9300000000000D+00  0.0000000000000D+00  0.0000000000000D+00
395  3.9400000000000D+00  0.0000000000000D+00  0.0000000000000D+00
396  3.9500000000000D+00  0.0000000000000D+00  0.0000000000000D+00
397  3.9600000000000D+00  0.0000000000000D+00  0.0000000000000D+00
398  3.9700000000000D+00  0.0000000000000D+00  0.0000000000000D+00
399  3.9800000000000D+00  0.0000000000000D+00  0.0000000000000D+00
400  3.9900000000000D+00  0.0000000000000D+00  0.0000000000000D+00
401  4.0000000000000D+00  0.0000000000000D+00  0.0000000000000D+00
402  4.0100000000000D+00  0.0000000000000D+00  0.0000000000000D+00
403  4.0200000000000D+00  0.0000000000000D+00  0.0000000000000D+00
404  4.0300000000000D+00  0.0000000000000D+00  0.0000000000000D+00
405  4.0400000000000D+00  0.0000000000000D+00  0.0000000000000D+00
406  4.0500000000000D+00  0.0000000000000D+00  0.0000000000000D+00
407  4.0600000000000D+00  0.0000000000000D+00  0.0000000000000D+00
408  4.0700000000000D+00  0.0000000000000D+00  0.0000000000000D+00
409  4.0800000000000D+00  0.0000000000000D+00  0.0000000000000D+00
410  4.0900000000000D+00  0.0000000000000D+00  0.0000000000000D+00
411  4.1000000000000D+00  0.0000000000000D+00  0.0000000000000D+00
412  4.1100000000000D+00  0.0000000000000D+00  0.0000000000000D+00
413  4.1200000000000D+00  0.0000000000000D+00  0.0000000000000D+00
414  4.1300000000000D+00  0.0000000000000D+00  0.0000000000000D+00
415  4.1400000000000D+00  0.0000000000000D+00  0.0000000000000D+00
416  4.1500000000000D+00  0.0000000000000D+00  0.0000000000000D+00
417  4.1600000000000D+00  0.0000000000000D+00  0.0000000000000D+00
418  4.1700000000000D+00  0.0000000000000D+00  0.0000000000000D+00
419  4.1800000000000D+00  0.0000000000000D+00  0.0000000000000D+00
420  4.1900000000000D+00  0.0000000000000D+00  0.0000000000000D+00
421  4.2000000000000D+00  0.0000000000000D+00  0.0000000000000D+00
422  4.2100000000000D+00  0.0000000000000D+00  0.0000000000000D+00
423  4.2200000000000D+00  0.0000000000000D+00  0.0000000000000D+00
424  4.2300000000000D+00  0.0000000000000D+00  0.0000000000000D+00
425  4.2400000000000D+00  0.0000000000000D+00  0.0000000000000D+00
426  4.2500000000000D+00  0.0000000000000D+00  0.0000000000000D+00
427  4.2600000000000D+00  0.0000000000000D+00  0.0000000000000D+00
428  4.2700000000000D+00  0.0000000000000D+00  0.0000000000000D+00
429  4.2800000000000D+00  0.0000000000000D+00  0.0000000000000D+00
430  4.2900000000000D+00  0.0000000000000D+00  0.0000000000000D+00
431  4.3000000000000D+00  0.0000000000000D+00  0.0000000000000D+00
432  4.3100000000000D+00  0.0000000000000D+00  0.0000000000000D+00
433  4.3200000000000D+00  0.0000000000000D+00  0.0000000000000D+00
434  4.3300000000000D+00  0.0000000000000D+00  0.0000000000000D+00
435  4.3400000000000D+00  0.0000000000000D+00  0.0000000000000D+00
436  4.3500000000000D+00  0.0000000000000D+00  0.0000000000000D+00
437  4.3600000000000D+00  0.0000000000000D+00  0.0000000000000D+00
438  4.3700000000000D+00  0.0000000000000D+00  0.0000000000000D+00
439  4.3800000000000D+00  0.0000000000000D+00  0.0000000000000D+00
440  4.3900000000000D+00  0.0000000000000D+00  0.0000000000000D+00
441  4.4000000000000D+00  0.0000000000000D+00  0.0000000000000D+00
442  4.4100000000000D+00  0.0000000000000D+00  0.0000000000000D+00
443  4.4200000000000D+00  0.0000000000000D+00  0.0000000000000D+00