Zr    ONCVPSP-3.3.0  r_core=   1.56507   1.56507   1.51006
40.0000     12.0000      180429    zatom,zion,pspd
8 -116133   2     4   600     0    pspcod,pspxc,lmax,lloc,mmax,r2well
5.99000000  5.00000000  0.00000000    rchrg fchrg qchrg
2     3     3     0    nproj
3     1           extension_switch
4     3     0    nprojso
0                         8.8943865224985D-01  1.0584762108156D+01
1  0.0000000000000D+00  1.0385271809188D-09 -2.0999252337006D-10
2  1.0000000000000D-02 -3.2086417499578D-02  5.6199167934319D-02
3  2.0000000000000D-02 -6.3985671924884D-02  1.1230471753059D-01
4  3.0000000000000D-02 -9.5512287544680D-02  1.6822341692909D-01
5  4.0000000000000D-02 -1.2648414237613D-01  2.2386280310315D-01
6  5.0000000000000D-02 -1.5672409298273D-01  2.7913155602110D-01
7  6.0000000000000D-02 -1.8606153752722D-01  3.3393986065365D-01
8  7.0000000000000D-02 -2.1433389773265D-01  3.8819975302516D-01
9  8.0000000000000D-02 -2.4138800144282D-01  4.4182544671689D-01
10  9.0000000000000D-02 -2.6708134874798D-01  4.9473363648809D-01
11  1.0000000000000D-01 -2.9128324613491D-01  5.4684377598228D-01
12  1.1000000000000D-01 -3.1387579481600D-01  5.9807832682814D-01
13  1.2000000000000D-01 -3.3475472126701D-01  6.4836297682241D-01
14  1.3000000000000D-01 -3.5383004003566D-01  6.9762682529132D-01
15  1.4000000000000D-01 -3.7102654104751D-01  7.4580253416234D-01
16  1.5000000000000D-01 -3.8628409590458D-01  7.9282644373314D-01
17  1.6000000000000D-01 -3.9955778001788D-01  8.3863865259500D-01
18  1.7000000000000D-01 -4.1081780980767D-01  8.8318306164559D-01
19  1.8000000000000D-01 -4.2004929661576D-01  9.2640738260716D-01
20  1.9000000000000D-01 -4.2725182137025D-01  9.6826311194188D-01
21  2.0000000000000D-01 -4.3243883639685D-01  1.0087054715225D+00
22  2.1000000000000D-01 -4.3563690305003D-01  1.0476933178660D+00
23  2.2000000000000D-01 -4.3688477601454D-01  1.0851890221638D+00
24  2.3000000000000D-01 -4.3623234717352D-01  1.1211583237428D+00
25  2.4000000000000D-01 -4.3373946382811D-01  1.1555701599545D+00
26  2.5000000000000D-01 -4.2947463775982D-01  1.1883964758162D+00
27  2.6000000000000D-01 -4.2351366312819D-01  1.2196120170122D+00
28  2.7000000000000D-01 -4.1593816247264D-01  1.2491941100971D+00
29  2.8000000000000D-01 -4.0683408112014D-01  1.2771224339287D+00
30  2.9000000000000D-01 -3.9629015107636D-01  1.3033787864882D+00
31  3.0000000000000D-01 -3.8439634598390D-01  1.3279468513211D+00
32  3.1000000000000D-01 -3.7124234895971D-01  1.3508119678482D+00
33  3.2000000000000D-01 -3.5691605506972D-01  1.3719609097564D+00
34  3.3000000000000D-01 -3.4150212986023D-01  1.3913816755772D+00
35  3.4000000000000D-01 -3.2508064474451D-01  1.4090632954063D+00
36  3.5000000000000D-01 -3.0772580914618D-01  1.4249956575012D+00
37  3.6000000000000D-01 -2.8950481813503D-01  1.4391693582263D+00
38  3.7000000000000D-01 -2.7047683287096D-01  1.4515755784963D+00
39  3.8000000000000D-01 -2.5069210951110D-01  1.4622059895005D+00
40  3.9000000000000D-01 -2.3019129035463D-01  1.4710526900781D+00
41  4.0000000000000D-01 -2.0900486892005D-01  1.4781081776673D+00
42  4.1000000000000D-01 -1.8715283839502D-01  1.4833653542643D+00
43  4.2000000000000D-01 -1.6464453049758D-01  1.4868175683186D+00
44  4.3000000000000D-01 -1.4147864926692D-01  1.4884586929582D+00
45  4.4000000000000D-01 -1.1764350169423D-01  1.4882832403878D+00
46  4.5000000000000D-01 -9.3117424440305D-02  1.4862865117520D+00
47  4.6000000000000D-01 -6.7869403201213D-02  1.4824647811948D+00
48  4.7000000000000D-01 -4.1859878609699D-02  1.4768155122989D+00
49  4.8000000000000D-01 -1.5041729931286D-02  1.4693376045509D+00
50  4.9000000000000D-01  1.2638574733300D-02  1.4600316669638D+00
51  5.0000000000000D-01  4.1239675463121D-02  1.4489003154991D+00
52  5.1000000000000D-01  7.0823880762480D-02  1.4359484904795D+00
53  5.2000000000000D-01  1.0145560916205D-01  1.4211837897691D+00
54  5.3000000000000D-01  1.3319973221024D-01  1.4046168131340D+00
55  5.4000000000000D-01  1.6611984056081D-01  1.3862615128854D+00
56  5.5000000000000D-01  2.0027645628519D-01  1.3661355456484D+00
57  5.6000000000000D-01  2.3572521567487D-01  1.3442606199108D+00
58  5.7000000000000D-01  2.7251504764540D-01  1.3206628338765D+00
59  5.8000000000000D-01  3.1068637338616D-01  1.2953729980892D+00
60  5.9000000000000D-01  3.5026935311169D-01  1.2684269373030D+00
61  6.0000000000000D-01  3.9128220565303D-01  1.2398657661587D+00
62  6.1000000000000D-01  4.3372962617844D-01  1.2097361333797D+00
63  6.2000000000000D-01  4.7760132655358D-01  1.1780904294243D+00
64  6.3000000000000D-01  5.2287072174146D-01  1.1449869528304D+00
65  6.4000000000000D-01  5.6949378422857D-01  1.1104900308449D+00
66  6.5000000000000D-01  6.1740808672905D-01  1.0746700903606D+00
67  6.6000000000000D-01  6.6653205141197D-01  1.0376036756702D+00
68  6.7000000000000D-01  7.1676442162824D-01  9.9937341008169D-01
69  6.8000000000000D-01  7.6798396958731D-01  9.6006789903720D-01
70  6.9000000000000D-01  8.2004945071490D-01  9.1978157300639D-01
71  7.0000000000000D-01  8.7279981251730D-01  8.7861446909435D-01
72  7.1000000000000D-01  9.2605466272380D-01  8.3667195100215D-01
73  7.2000000000000D-01  9.7961499831101D-01  7.9406436769624D-01
74  7.3000000000000D-01  1.0332641937832D+00  7.5090665187054D-01
75  7.4000000000000D-01  1.0867692438077D+00  7.0731786001896D-01
76  7.5000000000000D-01  1.1398822520469D+00  6.6342065666128D-01
77  7.6000000000000D-01  1.1923421548117D+00  6.1934074597745D-01
78  7.7000000000000D-01  1.2438766650327D+00  5.7520625479456D-01
79  7.8000000000000D-01  1.2942044190494D+00  5.3114707152507D-01
80  7.9000000000000D-01  1.3430373058895D+00  4.8729414627022D-01
81  8.0000000000000D-01  1.3900829560800D+00  4.4377875786849D-01
82  8.1000000000000D-01  1.4350473646530D+00  4.0073175417754D-01
83  8.2000000000000D-01  1.4776376208910D+00  3.5828277232425D-01
84  8.3000000000000D-01  1.5175647155528D+00  3.1655944603174D-01
85  8.4000000000000D-01  1.5545463948398D+00  2.7568660743276D-01
86  8.5000000000000D-01  1.5883100292360D+00  2.3578549099718D-01
87  8.6000000000000D-01  1.6185954646000D+00  1.9697294733629D-01
88  8.7000000000000D-01  1.6451578225163D+00  1.5936067469411D-01
89  8.8000000000000D-01  1.6677702169388D+00  1.2305447589401D-01
90  8.9000000000000D-01  1.6862263545813D+00  8.8153548377799D-02
91  9.0000000000000D-01  1.7003429873377D+00  5.4749814752855D-02
92  9.1000000000000D-01  1.7099621862291D+00  2.2927300954017D-02
93  9.2000000000000D-01  1.7149534079815D+00 -7.2384312684088D-03
94  9.3000000000000D-01  1.7152153273088D+00 -3.5680791300168D-02
95  9.4000000000000D-01  1.7106774103017D+00 -6.2342600374563D-02
96  9.5000000000000D-01  1.7013012069684D+00 -8.7176460991043D-02
97  9.6000000000000D-01  1.6870813439242D+00 -1.1014505067995D-01
98  9.7000000000000D-01  1.6680462014239D+00 -1.3122133650051D-01
99  9.8000000000000D-01  1.6442582624274D+00 -1.5038870747057D-01
100  9.9000000000000D-01  1.6158141248990D+00 -1.6764102294116D-01
101  1.0000000000000D+00  1.5828441724419D+00 -1.8298257582876D-01
102  1.0100000000000D+00  1.5455119021834D+00 -1.9642797049712D-01
103  1.0200000000000D+00  1.5040129127625D+00 -2.0800191598532D-01
104  1.0300000000000D+00  1.4585735592144D+00 -2.1773893618269D-01
105  1.0400000000000D+00  1.4094492854864D+00 -2.2568299945465D-01
106  1.0500000000000D+00  1.3569226490753D+00 -2.3188707108228D-01
107  1.0600000000000D+00  1.3013010559149D+00 -2.3641259271048D-01
108  1.0700000000000D+00  1.2429142273075D+00 -2.3932889383690D-01
109  1.0800000000000D+00  1.1821114237782D+00 -2.4071254107853D-01
110  1.0900000000000D+00  1.1192584538679D+00 -2.4064663166937D-01
111  1.1000000000000D+00  1.0547344984373D+00 -2.3922003822684D-01
112  1.1100000000000D+00  9.8892878346699D-01 -2.3652661237701D-01
113  1.1200000000000D+00  9.2223713640427D-01 -2.3266435530168D-01
114  1.1300000000000D+00  8.5505846253929D-01 -2.2773456360159D-01
115  1.1400000000000D+00  7.8779117904870D-01 -2.2184095913765D-01
116  1.1500000000000D+00  7.2082964509997D-01 -2.1508881168971D-01
117  1.1600000000000D+00  6.5456062669749D-01 -2.0758406334686D-01
118  1.1700000000000D+00  5.8935983457127D-01 -1.9943246346566D-01
119  1.1800000000000D+00  5.2558857275712D-01 -1.9073872289445D-01
120  1.1900000000000D+00  4.6359053469155D-01 -1.8160569598459D-01
121  1.2000000000000D+00  4.0368878165734D-01 -1.7213359847387D-01
122  1.2100000000000D+00  3.4618293605888D-01 -1.6241926880659D-01
123  1.2200000000000D+00  2.9134662098667D-01 -1.5255548023162D-01
124  1.2300000000000D+00  2.3942517315985D-01 -1.4263031005248D-01
125  1.2400000000000D+00  1.9063365334683D-01 -1.3272657174005D-01
126  1.2500000000000D+00  1.4515517611472D-01 -1.2292131512036D-01
127  1.2600000000000D+00  1.0313957609915D-01 -1.1328539881553D-01
128  1.2700000000000D+00  6.4702422899547D-02 -1.0388313798508D-01
129  1.2800000000000D+00  2.9924394833017D-02 -9.4772029998324D-02
130  1.2900000000000D+00 -1.1489834540358D-03 -8.6002559505150D-02
131  1.3000000000000D+00 -2.8507241181808D-02 -7.7618082887190D-02
132  1.3100000000000D+00 -5.2174501389640D-02 -6.9654792008238D-02
133  1.3200000000000D+00 -7.2208669496814D-02 -6.2141755645495D-02
134  1.3300000000000D+00 -8.8700285710660D-02 -5.5101035555181D-02
135  1.3400000000000D+00 -1.0177105464112D-01 -4.8547874547015D-02
136  1.3500000000000D+00 -1.1157207558427D-01 -4.2490951685801D-02
137  1.3600000000000D+00 -1.1828179949255D-01 -3.6932699159407D-02
138  1.3700000000000D+00 -1.2210373674502D-01 -3.1869675786394D-02
139  1.3800000000000D+00 -1.2326395231128D-01 -2.7292989330849D-02
140  1.3900000000000D+00 -1.2200837960070D-01 -2.3188760977749D-02
141  1.4000000000000D+00 -1.1859999023731D-01 -1.9538623994052D-02
142  1.4100000000000D+00 -1.1331586729645D-01 -1.6320246516908D-02
143  1.4200000000000D+00 -1.0644417676425D-01 -1.3507878425372D-02
144  1.4300000000000D+00 -9.8281253781261D-02 -1.1072880031931D-02
145  1.4400000000000D+00 -8.9128240883807D-02 -8.9843397028015D-03
146  1.4500000000000D+00 -7.9288566356648D-02 -7.2095292743653D-03
147  1.4600000000000D+00 -6.9065961357506D-02 -5.7142680001271D-03
148  1.4700000000000D+00 -5.8757150771768D-02 -4.4642701605494D-03
149  1.4800000000000D+00 -4.8645344286490D-02 -3.4263688808374D-03
150  1.4900000000000D+00 -3.8992679077970D-02 -2.5699864154274D-03
151  1.5000000000000D+00 -3.0035666212169D-02 -1.8680430669181D-03
152  1.5100000000000D+00 -2.1983796438004D-02 -1.2972890140808D-03
153  1.5200000000000D+00 -1.5022759003113D-02 -8.3910691040594D-04
154  1.5300000000000D+00 -9.2722367706792D-03 -4.7858276799021D-04
155  1.5400000000000D+00 -4.8579046947862D-03 -2.0737321855105D-04
156  1.5500000000000D+00 -1.9974037925803D-03 -2.2906867682512D-05
157  1.5600000000000D+00 -5.8676341736992D-04  7.2644062665171D-05
158  1.5700000000000D+00 -8.2246103678369D-05  7.3642654983067D-05
159  1.5800000000000D+00  7.7701661824757D-06  1.9749208138955D-05
160  1.5900000000000D+00 -1.0317905236509D-05 -1.1105477683356D-05
161  1.6000000000000D+00 -5.7600655127417D-06 -4.4143425358352D-06
162  1.6100000000000D+00  8.6226629956383D-07  2.4228188748601D-06
163  1.6200000000000D+00  4.0439742964230D-07  7.6507279583508D-07
164  1.6300000000000D+00  7.2145089748351D-07 -2.3853997048881D-07
165  1.6400000000000D+00  1.7260479220128D-07 -5.7069915889683D-08
166  1.6500000000000D+00  0.0000000000000D+00  0.0000000000000D+00
167  1.6600000000000D+00  0.0000000000000D+00  0.0000000000000D+00
168  1.6700000000000D+00  0.0000000000000D+00  0.0000000000000D+00
169  1.6800000000000D+00  0.0000000000000D+00  0.0000000000000D+00
170  1.6900000000000D+00  0.0000000000000D+00  0.0000000000000D+00
171  1.7000000000000D+00  0.0000000000000D+00  0.0000000000000D+00
172  1.7100000000000D+00  0.0000000000000D+00  0.0000000000000D+00
173  1.7200000000000D+00  0.0000000000000D+00  0.0000000000000D+00
174  1.7300000000000D+00  0.0000000000000D+00  0.0000000000000D+00
175  1.7400000000000D+00  0.0000000000000D+00  0.0000000000000D+00
176  1.7500000000000D+00  0.0000000000000D+00  0.0000000000000D+00
177  1.7600000000000D+00  0.0000000000000D+00  0.0000000000000D+00
178  1.7700000000000D+00  0.0000000000000D+00  0.0000000000000D+00
179  1.7800000000000D+00  0.0000000000000D+00  0.0000000000000D+00
180  1.7900000000000D+00  0.0000000000000D+00  0.0000000000000D+00
181  1.8000000000000D+00  0.0000000000000D+00  0.0000000000000D+00
182  1.8100000000000D+00  0.0000000000000D+00  0.0000000000000D+00
183  1.8200000000000D+00  0.0000000000000D+00  0.0000000000000D+00
184  1.8300000000000D+00  0.0000000000000D+00  0.0000000000000D+00
185  1.8400000000000D+00  0.0000000000000D+00  0.0000000000000D+00
186  1.8500000000000D+00  0.0000000000000D+00  0.0000000000000D+00
187  1.8600000000000D+00  0.0000000000000D+00  0.0000000000000D+00
188  1.8700000000000D+00  0.0000000000000D+00  0.0000000000000D+00
189  1.8800000000000D+00  0.0000000000000D+00  0.0000000000000D+00
190  1.8900000000000D+00  0.0000000000000D+00  0.0000000000000D+00
191  1.9000000000000D+00  0.0000000000000D+00  0.0000000000000D+00
192  1.9100000000000D+00  0.0000000000000D+00  0.0000000000000D+00
193  1.9200000000000D+00  0.0000000000000D+00  0.0000000000000D+00
194  1.9300000000000D+00  0.0000000000000D+00  0.0000000000000D+00
195  1.9400000000000D+00  0.0000000000000D+00  0.0000000000000D+00
196  1.9500000000000D+00  0.0000000000000D+00  0.0000000000000D+00
197  1.9600000000000D+00  0.0000000000000D+00  0.0000000000000D+00
198  1.9700000000000D+00  0.0000000000000D+00  0.0000000000000D+00
199  1.9800000000000D+00  0.0000000000000D+00  0.0000000000000D+00
200  1.9900000000000D+00  0.0000000000000D+00  0.0000000000000D+00
201  2.0000000000000D+00  0.0000000000000D+00  0.0000000000000D+00
202  2.0100000000000D+00  0.0000000000000D+00  0.0000000000000D+00
203  2.0200000000000D+00  0.0000000000000D+00  0.0000000000000D+00
204  2.0300000000000D+00  0.0000000000000D+00  0.0000000000000D+00
205  2.0400000000000D+00  0.0000000000000D+00  0.0000000000000D+00
206  2.0500000000000D+00  0.0000000000000D+00  0.0000000000000D+00
207  2.0600000000000D+00  0.0000000000000D+00  0.0000000000000D+00
208  2.0700000000000D+00  0.0000000000000D+00  0.0000000000000D+00
209  2.0800000000000D+00  0.0000000000000D+00  0.0000000000000D+00
210  2.0900000000000D+00  0.0000000000000D+00  0.0000000000000D+00
211  2.1000000000000D+00  0.0000000000000D+00  0.0000000000000D+00
212  2.1100000000000D+00  0.0000000000000D+00  0.0000000000000D+00
213  2.1200000000000D+00  0.0000000000000D+00  0.0000000000000D+00
214  2.1300000000000D+00  0.0000000000000D+00  0.0000000000000D+00
215  2.1400000000000D+00  0.0000000000000D+00  0.0000000000000D+00
216  2.1500000000000D+00  0.0000000000000D+00  0.0000000000000D+00
217  2.1600000000000D+00  0.0000000000000D+00  0.0000000000000D+00
218  2.1700000000000D+00  0.0000000000000D+00  0.0000000000000D+00
219  2.1800000000000D+00  0.0000000000000D+00  0.0000000000000D+00
220  2.1900000000000D+00  0.0000000000000D+00  0.0000000000000D+00
221  2.2000000000000D+00  0.0000000000000D+00  0.0000000000000D+00
222  2.2100000000000D+00  0.0000000000000D+00  0.0000000000000D+00
223  2.2200000000000D+00  0.0000000000000D+00  0.0000000000000D+00
224  2.2300000000000D+00  0.0000000000000D+00  0.0000000000000D+00
225  2.2400000000000D+00  0.0000000000000D+00  0.0000000000000D+00
226  2.2500000000000D+00  0.0000000000000D+00  0.0000000000000D+00
227  2.2600000000000D+00  0.0000000000000D+00  0.0000000000000D+00
228  2.2700000000000D+00  0.0000000000000D+00  0.0000000000000D+00
229  2.2800000000000D+00  0.0000000000000D+00  0.0000000000000D+00
230  2.2900000000000D+00  0.0000000000000D+00  0.0000000000000D+00
231  2.3000000000000D+00  0.0000000000000D+00  0.0000000000000D+00
232  2.3100000000000D+00  0.0000000000000D+00  0.0000000000000D+00
233  2.3200000000000D+00  0.0000000000000D+00  0.0000000000000D+00
234  2.3300000000000D+00  0.0000000000000D+00  0.0000000000000D+00
235  2.3400000000000D+00  0.0000000000000D+00  0.0000000000000D+00
236  2.3500000000000D+00  0.0000000000000D+00  0.0000000000000D+00
237  2.3600000000000D+00  0.0000000000000D+00  0.0000000000000D+00
238  2.3700000000000D+00  0.0000000000000D+00  0.0000000000000D+00
239  2.3800000000000D+00  0.0000000000000D+00  0.0000000000000D+00
240  2.3900000000000D+00  0.0000000000000D+00  0.0000000000000D+00
241  2.4000000000000D+00  0.0000000000000D+00  0.0000000000000D+00
242  2.4100000000000D+00  0.0000000000000D+00  0.0000000000000D+00
243  2.4200000000000D+00  0.0000000000000D+00  0.0000000000000D+00
244  2.4300000000000D+00  0.0000000000000D+00  0.0000000000000D+00
245  2.4400000000000D+00  0.0000000000000D+00  0.0000000000000D+00
246  2.4500000000000D+00  0.0000000000000D+00  0.0000000000000D+00
247  2.4600000000000D+00  0.0000000000000D+00  0.0000000000000D+00
248  2.4700000000000D+00  0.0000000000000D+00  0.0000000000000D+00
249  2.4800000000000D+00  0.0000000000000D+00  0.0000000000000D+00
250  2.4900000000000D+00  0.0000000000000D+00  0.0000000000000D+00
251  2.5000000000000D+00  0.0000000000000D+00  0.0000000000000D+00
252  2.5100000000000D+00  0.0000000000000D+00  0.0000000000000D+00
253  2.5200000000000D+00  0.0000000000000D+00  0.0000000000000D+00
254  2.5300000000000D+00  0.0000000000000D+00  0.0000000000000D+00
255  2.5400000000000D+00  0.0000000000000D+00  0.0000000000000D+00
256  2.5500000000000D+00  0.0000000000000D+00  0.0000000000000D+00
257  2.5600000000000D+00  0.0000000000000D+00  0.0000000000000D+00
258  2.5700000000000D+00  0.0000000000000D+00  0.0000000000000D+00
259  2.5800000000000D+00  0.0000000000000D+00  0.0000000000000D+00
260  2.5900000000000D+00  0.0000000000000D+00  0.0000000000000D+00
261  2.6000000000000D+00  0.0000000000000D+00  0.0000000000000D+00
262  2.6100000000000D+00  0.0000000000000D+00  0.0000000000000D+00
263  2.6200000000000D+00  0.0000000000000D+00  0.0000000000000D+00
264  2.6300000000000D+00  0.0000000000000D+00  0.0000000000000D+00
265  2.6400000000000D+00  0.0000000000000D+00  0.0000000000000D+00
266  2.6500000000000D+00  0.0000000000000D+00  0.0000000000000D+00
267  2.6600000000000D+00  0.0000000000000D+00  0.0000000000000D+00
268  2.6700000000000D+00  0.0000000000000D+00  0.0000000000000D+00
269  2.6800000000000D+00  0.0000000000000D+00  0.0000000000000D+00
270  2.6900000000000D+00  0.0000000000000D+00  0.0000000000000D+00
271  2.7000000000000D+00  0.0000000000000D+00  0.0000000000000D+00
272  2.7100000000000D+00  0.0000000000000D+00  0.0000000000000D+00
273  2.7200000000000D+00  0.0000000000000D+00  0.0000000000000D+00
274  2.7300000000000D+00  0.0000000000000D+00  0.0000000000000D+00
275  2.7400000000000D+00  0.0000000000000D+00  0.0000000000000D+00
276  2.7500000000000D+00  0.0000000000000D+00  0.0000000000000D+00
277  2.7600000000000D+00  0.0000000000000D+00  0.0000000000000D+00
278  2.7700000000000D+00  0.0000000000000D+00  0.0000000000000D+00
279  2.7800000000000D+00  0.0000000000000D+00  0.0000000000000D+00
280  2.7900000000000D+00  0.0000000000000D+00  0.0000000000000D+00
281  2.8000000000000D+00  0.0000000000000D+00  0.0000000000000D+00
282  2.8100000000000D+00  0.0000000000000D+00  0.0000000000000D+00
283  2.8200000000000D+00  0.0000000000000D+00  0.0000000000000D+00
284  2.8300000000000D+00  0.0000000000000D+00  0.0000000000000D+00
285  2.8400000000000D+00  0.0000000000000D+00  0.0000000000000D+00
286  2.8500000000000D+00  0.0000000000000D+00  0.0000000000000D+00
287  2.8600000000000D+00  0.0000000000000D+00  0.0000000000000D+00
288  2.8700000000000D+00  0.0000000000000D+00  0.0000000000000D+00
289  2.8800000000000D+00  0.0000000000000D+00  0.0000000000000D+00
290  2.8900000000000D+00  0.0000000000000D+00  0.0000000000000D+00
291  2.9000000000000D+00  0.0000000000000D+00  0.0000000000000D+00
292  2.9100000000000D+00  0.0000000000000D+00  0.0000000000000D+00
293  2.9200000000000D+00  0.0000000000000D+00  0.0000000000000D+00
294  2.9300000000000D+00  0.0000000000000D+00  0.0000000000000D+00
295  2.9400000000000D+00  0.0000000000000D+00  0.0000000000000D+00
296  2.9500000000000D+00  0.0000000000000D+00  0.0000000000000D+00
297  2.9600000000000D+00  0.0000000000000D+00  0.0000000000000D+00
298  2.9700000000000D+00  0.0000000000000D+00  0.0000000000000D+00
299  2.9800000000000D+00  0.0000000000000D+00  0.0000000000000D+00
300  2.9900000000000D+00  0.0000000000000D+00  0.0000000000000D+00
301  3.0000000000000D+00  0.0000000000000D+00  0.0000000000000D+00
302  3.0100000000000D+00  0.0000000000000D+00  0.0000000000000D+00
303  3.0200000000000D+00  0.0000000000000D+00  0.0000000000000D+00
304  3.0300000000000D+00  0.0000000000000D+00  0.0000000000000D+00
305  3.0400000000000D+00  0.0000000000000D+00  0.0000000000000D+00
306  3.0500000000000D+00  0.0000000000000D+00  0.0000000000000D+00
307  3.0600000000000D+00  0.0000000000000D+00  0.0000000000000D+00
308  3.0700000000000D+00  0.0000000000000D+00  0.0000000000000D+00
309  3.0800000000000D+00  0.0000000000000D+00  0.0000000000000D+00
310  3.0900000000000D+00  0.0000000000000D+00  0.0000000000000D+00
311  3.1000000000000D+00  0.0000000000000D+00  0.0000000000000D+00
312  3.1100000000000D+00  0.0000000000000D+00  0.0000000000000D+00
313  3.1200000000000D+00  0.0000000000000D+00  0.0000000000000D+00
314  3.1300000000000D+00  0.0000000000000D+00  0.0000000000000D+00
315  3.1400000000000D+00  0.0000000000000D+00  0.0000000000000D+00
316  3.1500000000000D+00  0.0000000000000D+00  0.0000000000000D+00
317  3.1600000000000D+00  0.0000000000000D+00  0.0000000000000D+00
318  3.1700000000000D+00  0.0000000000000D+00  0.0000000000000D+00
319  3.1800000000000D+00  0.0000000000000D+00  0.0000000000000D+00
320  3.1900000000000D+00  0.0000000000000D+00  0.0000000000000D+00
321  3.2000000000000D+00  0.0000000000000D+00  0.0000000000000D+00
322  3.2100000000000D+00  0.0000000000000D+00  0.0000000000000D+00
323  3.2200000000000D+00  0.0000000000000D+00  0.0000000000000D+00
324  3.2300000000000D+00  0.0000000000000D+00  0.0000000000000D+00
325  3.2400000000000D+00  0.0000000000000D+00  0.0000000000000D+00
326  3.2500000000000D+00  0.0000000000000D+00  0.0000000000000D+00
327  3.2600000000000D+00  0.0000000000000D+00  0.0000000000000D+00
328  3.2700000000000D+00  0.0000000000000D+00  0.0000000000000D+00
329  3.2800000000000D+00  0.0000000000000D+00  0.0000000000000D+00
330  3.2900000000000D+00  0.0000000000000D+00  0.0000000000000D+00
331  3.3000000000000D+00  0.0000000000000D+00  0.0000000000000D+00
332  3.3100000000000D+00  0.0000000000000D+00  0.0000000000000D+00
333  3.3200000000000D+00  0.0000000000000D+00  0.0000000000000D+00
334  3.3300000000000D+00  0.0000000000000D+00  0.0000000000000D+00
335  3.3400000000000D+00  0.0000000000000D+00  0.0000000000000D+00
336  3.3500000000000D+00  0.0000000000000D+00  0.0000000000000D+00
337  3.3600000000000D+00  0.0000000000000D+00  0.0000000000000D+00
338  3.3700000000000D+00  0.0000000000000D+00  0.0000000000000D+00
339  3.3800000000000D+00  0.0000000000000D+00  0.0000000000000D+00
340  3.3900000000000D+00  0.0000000000000D+00  0.0000000000000D+00
341  3.4000000000000D+00  0.0000000000000D+00  0.0000000000000D+00
342  3.4100000000000D+00  0.0000000000000D+00  0.0000000000000D+00
343  3.4200000000000D+00  0.0000000000000D+00  0.0000000000000D+00
344  3.4300000000000D+00  0.0000000000000D+00  0.0000000000000D+00
345  3.4400000000000D+00  0.0000000000000D+00  0.0000000000000D+00
346  3.4500000000000D+00  0.0000000000000D+00  0.0000000000000D+00
347  3.4600000000000D+00  0.0000000000000D+00  0.0000000000000D+00
348  3.4700000000000D+00  0.0000000000000D+00  0.0000000000000D+00
349  3.4800000000000D+00  0.0000000000000D+00  0.0000000000000D+00
350  3.4900000000000D+00  0.0000000000000D+00  0.0000000000000D+00
351  3.5000000000000D+00  0.0000000000000D+00  0.0000000000000D+00
352  3.5100000000000D+00  0.0000000000000D+00  0.0000000000000D+00
353  3.5200000000000D+00  0.0000000000000D+00  0.0000000000000D+00
354  3.5300000000000D+00  0.0000000000000D+00  0.0000000000000D+00
355  3.5400000000000D+00  0.0000000000000D+00  0.0000000000000D+00
356  3.5500000000000D+00  0.0000000000000D+00  0.0000000000000D+00
357  3.5600000000000D+00  0.0000000000000D+00  0.0000000000000D+00
358  3.5700000000000D+00  0.0000000000000D+00  0.0000000000000D+00
359  3.5800000000000D+00  0.0000000000000D+00  0.0000000000000D+00
360  3.5900000000000D+00  0.0000000000000D+00  0.0000000000000D+00
361  3.6000000000000D+00  0.0000000000000D+00  0.0000000000000D+00
362  3.6100000000000D+00  0.0000000000000D+00  0.0000000000000D+00
363  3.6200000000000D+00  0.0000000000000D+00  0.0000000000000D+00
364  3.6300000000000D+00  0.0000000000000D+00  0.0000000000000D+00
365  3.6400000000000D+00  0.0000000000000D+00  0.0000000000000D+00
366  3.6500000000000D+00  0.0000000000000D+00  0.0000000000000D+00
367  3.6600000000000D+00  0.0000000000000D+00  0.0000000000000D+00
368  3.6700000000000D+00  0.0000000000000D+00  0.0000000000000D+00
369  3.6800000000000D+00  0.0000000000000D+00  0.0000000000000D+00
370  3.6900000000000D+00  0.0000000000000D+00  0.0000000000000D+00
371  3.7000000000000D+00  0.0000000000000D+00  0.0000000000000D+00
372  3.7100000000000D+00  0.0000000000000D+00  0.0000000000000D+00
373  3.7200000000000D+00  0.0000000000000D+00  0.0000000000000D+00
374  3.7300000000000D+00  0.0000000000000D+00  0.0000000000000D+00
375  3.7400000000000D+00  0.0000000000000D+00  0.0000000000000D+00
376  3.7500000000000D+00  0.0000000000000D+00  0.0000000000000D+00
377  3.7600000000000D+00  0.0000000000000D+00  0.0000000000000D+00
378  3.7700000000000D+00  0.0000000000000D+00  0.0000000000000D+00
379  3.7800000000000D+00  0.0000000000000D+00  0.0000000000000D+00
380  3.7900000000000D+00  0.0000000000000D+00  0.0000000000000D+00
381  3.8000000000000D+00  0.0000000000000D+00  0.0000000000000D+00
382  3.8100000000000D+00  0.0000000000000D+00  0.0000000000000D+00
383  3.8200000000000D+00  0.0000000000000D+00  0.0000000000000D+00
384  3.8300000000000D+00  0.0000000000000D+00  0.0000000000000D+00
385  3.8400000000000D+00  0.0000000000000D+00  0.0000000000000D+00
386  3.8500000000000D+00  0.0000000000000D+00  0.0000000000000D+00
387  3.8600000000000D+00  0.0000000000000D+00  0.0000000000000D+00
388  3.8700000000000D+00  0.0000000000000D+00  0.0000000000000D+00
389  3.8800000000000D+00  0.0000000000000D+00  0.0000000000000D+00
390  3.8900000000000D+00  0.0000000000000D+00  0.0000000000000D+00
391  3.9000000000000D+00  0.0000000000000D+00  0.0000000000000D+00
392  3.9100000000000D+00  0.0000000000000D+00  0.0000000000000D+00
393  3.9200000000000D+00  0.0000000000000D+00  0.0000000000000D+00
394  3.9300000000000D+00  0.0000000000000D+00  0.0000000000000D+00
395  3.9400000000000D+00  0.0000000000000D+00  0.0000000000000D+00
396  3.9500000000000D+00  0.0000000000000D+00  0.0000000000000D+00
397  3.9600000000000D+00  0.0000000000000D+00  0.0000000000000D+00
398  3.9700000000000D+00  0.0000000000000D+00  0.0000000000000D+00
399  3.9800000000000D+00  0.0000000000000D+00  0.0000000000000D+00
400  3.9900000000000D+00  0.0000000000000D+00  0.0000000000000D+00
401  4.0000000000000D+00  0.0000000000000D+00  0.0000000000000D+00
402  4.0100000000000D+00  0.0000000000000D+00  0.0000000000000D+00
403  4.0200000000000D+00  0.0000000000000D+00  0.0000000000000D+00
404  4.0300000000000D+00  0.0000000000000D+00  0.0000000000000D+00
405  4.0400000000000D+00  0.0000000000000D+00  0.0000000000000D+00
406  4.0500000000000D+00  0.0000000000000D+00  0.0000000000000D+00
407  4.0600000000000D+00  0.0000000000000D+00  0.0000000000000D+00
408  4.0700000000000D+00  0.0000000000000D+00  0.0000000000000D+00
409  4.0800000000000D+00  0.0000000000000D+00  0.0000000000000D+00
410  4.0900000000000D+00  0.0000000000000D+00  0.0000000000000D+00
411  4.1000000000000D+00  0.0000000000000D+00  0.0000000000000D+00
412  4.1100000000000D+00  0.0000000000000D+00  0.0000000000000D+00
413  4.1200000000000D+00  0.0000000000000D+00  0.0000000000000D+00
414  4.1300000000000D+00  0.0000000000000D+00  0.0000000000000D+00
415  4.1400000000000D+00  0.0000000000000D+00  0.0000000000000D+00
416  4.1500000000000D+00  0.0000000000000D+00  0.0000000000000D+00
417  4.1600000000000D+00  0.0000000000000D+00  0.0000000000000D+00
418  4.1700000000000D+00  0.0000000000000D+00  0.0000000000000D+00
419  4.1800000000000D+00  0.0000000000000D+00  0.0000000000000D+00
420  4.1900000000000D+00  0.0000000000000D+00  0.0000000000000D+00
421  4.2000000000000D+00  0.0000000000000D+00  0.0000000000000D+00
422  4.2100000000000D+00  0.0000000000000D+00  0.0000000000000D+00
423  4.2200000000000D+00  0.0000000000000D+00  0.0000000000000D+00
424  4.2300000000000D+00  0.0000000000000D+00  0.0000000000000D+00
425  4.2400000000000D+00  0.0000000000000D+00  0.0000000000000D+00
426  4.2500000000000D+00  0.0000000000000D+00  0.0000000000000D+00
427  4.2600000000000D+00  0.0000000000000D+00  0.0000000000000D+00
428  4.2700000000000D+00  0.0000000000000D+00  0.0000000000000D+00
429  4.2800000000000D+00  0.0000000000000D+00  0.0000000000000D+00
430  4.2900000000000D+00  0.0000000000000D+00  0.0000000000000D+00
431  4.3000000000000D+00  0.0000000000000D+00  0.0000000000000D+00
432  4.3100000000000D+00  0.0000000000000D+00  0.0000000000000D+00
433  4.3200000000000D+00  0.0000000000000D+00  0.0000000000000D+00
434  4.3300000000000D+00  0.0000000000000D+00  0.0000000000000D+00
435  4.3400000000000D+00  0.0000000000000D+00  0.0000000000000D+00
436  4.3500000000000D+00  0.0000000000000D+00  0.0000000000000D+00
437  4.3600000000000D+00  0.0000000000000D+00  0.0000000000000D+00
438  4.3700000000000D+00  0.0000000000000D+00  0.0000000000000D+00
439  4.3800000000000D+00  0.0000000000000D+00  0.0000000000000D+00
440  4.3900000000000D+00  0.0000000000000D+00  0.0000000000000D+00
441  4.4000000000000D+00  0.0000000000000D+00  0.0000000000000D+00
442  4.4100000000000D+00  0.0000000000000D+00  0.0000000000000D+00
443  4.4200000000000D+00  0.0000000000000D+00  0.0000000000000D+00