Ag    ONCVPSP-3.3.0  r_core=   1.41384   1.46535   1.61207
47.0000     19.0000      180430    zatom,zion,pspd
8 -116133   2     4   600     0    pspcod,pspxc,lmax,lloc,mmax,r2well
5.99000000  7.00000000  0.00000000    rchrg fchrg qchrg
2     4     3     0    nproj
3     1           extension_switch
4     3     0    nprojso
0                        -4.0128116001297D-01  9.5623583211951D+00
1  0.0000000000000D+00 -3.1890223795017D-09 -3.9893421899251D-11
2  1.0000000000000D-02  7.3777139876078D-02  7.8792741200215D-02
3  2.0000000000000D-02  1.4702717390055D-01  1.5739885729320D-01
4  3.0000000000000D-02  2.1922776638166D-01  2.3563228012561D-01
5  4.0000000000000D-02  2.8986606391110D-01  3.1330805351720D-01
6  5.0000000000000D-02  3.5844329224262D-01  3.9024288442110D-01
7  6.0000000000000D-02  4.2447918236014D-01  4.6625568832119D-01
8  7.0000000000000D-02  4.8751617260376D-01  5.4116812699291D-01
9  8.0000000000000D-02  5.4712333691086D-01  6.1480513679396D-01
10  9.0000000000000D-02  6.0289999312646D-01  6.8699544570013D-01
11  1.0000000000000D-01  6.5447894988309D-01  7.5757207735899D-01
12  1.1000000000000D-01  7.0152935567913D-01  8.2637284049995D-01
13  1.2000000000000D-01  7.4375911941963D-01  8.9324080211111D-01
14  1.3000000000000D-01  7.8091687774070D-01  9.5802474287282D-01
15  1.4000000000000D-01  8.1279349082822D-01  1.0205795934218D+00
16  1.5000000000000D-01  8.3922305506831D-01  1.0807668501086D+00
17  1.6000000000000D-01  8.6008342763240D-01  1.1384549690039D+00
18  1.7000000000000D-01  8.7529626490256D-01  1.1935197370045D+00
19  1.8000000000000D-01  8.8482658338170D-01  1.2458446189862D+00
20  1.9000000000000D-01  8.8868185830797D-01  1.2953210800489D+00
21  2.0000000000000D-01  8.8691068150388D-01  1.3418488819989D+00
22  2.1000000000000D-01  8.7960100594490D-01  1.3853363533065D+00
23  2.2000000000000D-01  8.6687801004003D-01  1.4257006318757D+00
24  2.3000000000000D-01  8.4890161959473D-01  1.4628678800565D+00
25  2.4000000000000D-01  8.2586372980113D-01  1.4967734714159D+00
26  2.5000000000000D-01  7.9798517330460D-01  1.5273621488766D+00
27  2.6000000000000D-01  7.6551248337514D-01  1.5545881539114D+00
28  2.7000000000000D-01  7.2871450342037D-01  1.5784153265630D+00
29  2.8000000000000D-01  6.8787889548326D-01  1.5988171761310D+00
30  2.9000000000000D-01  6.4330860094819D-01  1.6157769224427D+00
31  3.0000000000000D-01  5.9531830642873D-01  1.6292875076884D+00
32  3.1000000000000D-01  5.4423096673125D-01  1.6393515788644D+00
33  3.2000000000000D-01  4.9037443489869D-01  1.6459814409283D+00
34  3.3000000000000D-01  4.3407824666929D-01  1.6491989808255D+00
35  3.4000000000000D-01  3.7567060327511D-01  1.6490355626005D+00
36  3.5000000000000D-01  3.1547559241272D-01  1.6455318938564D+00
37  3.6000000000000D-01  2.5381068250310D-01  1.6387378638771D+00
38  3.7000000000000D-01  1.9098452009965D-01  1.6287123537762D+00
39  3.8000000000000D-01  1.2729505458095D-01  1.6155230190854D+00
40  3.9000000000000D-01  6.3028008173505D-02  1.5992460452438D+00
41  4.0000000000000D-01 -1.5442970162873D-03  1.5799658765050D+00
42  4.1000000000000D-01 -6.6163749816423D-02  1.5577749188297D+00
43  4.2000000000000D-01 -1.3058690010672D-01  1.5327732173896D+00
44  4.3000000000000D-01 -1.9458505625347D-01  1.5050681093705D+00
45  4.4000000000000D-01 -2.5794404428328D-01  1.4747738528271D+00
46  4.5000000000000D-01 -3.2046364936906D-01  1.4420112324114D+00
47  4.6000000000000D-01 -3.8195676599289D-01  1.4069071428742D+00
48  4.7000000000000D-01 -4.4224828848619D-01  1.3695941513180D+00
49  4.8000000000000D-01 -5.0117377843442D-01  1.3302100392679D+00
50  4.9000000000000D-01 -5.5857794958926D-01  1.2888973257184D+00
51  5.0000000000000D-01 -6.1431301438159D-01  1.2458027724115D+00
52  5.1000000000000D-01 -6.6823693880987D-01  1.2010768727053D+00
53  5.2000000000000D-01 -7.2021165434052D-01  1.1548733254977D+00
54  5.3000000000000D-01 -7.7010127645876D-01  1.1073484957816D+00
55  5.4000000000000D-01 -8.1777037962655D-01  1.0586608635213D+00
56  5.5000000000000D-01 -8.6308237762713D-01  1.0089704626560D+00
57  5.6000000000000D-01 -9.0589805660554D-01  9.5843831214934D-01
58  5.7000000000000D-01 -9.4607430556675D-01  9.0722584112339D-01
59  5.8000000000000D-01 -9.8346308571111D-01  8.5549431022291D-01
60  5.9000000000000D-01 -1.0179106757911D+00  8.0340423146814D-01
61  6.0000000000000D-01 -1.0492572257637D+00  7.5111478895458D-01
62  6.1000000000000D-01 -1.0773366454138D+00  6.9878326285379D-01
63  6.2000000000000D-01 -1.1019768484591D+00  6.4656445925459D-01
64  6.3000000000000D-01 -1.1230003660042D+00  5.9461014845738D-01
65  6.4000000000000D-01 -1.1402253361502D+00  5.4306851439524D-01
66  6.5000000000000D-01 -1.1534668692933D+00  4.9208361790003D-01
67  6.6000000000000D-01 -1.1625387811681D+00  4.4179487656020D-01
68  6.7000000000000D-01 -1.1672556782042D+00  3.9233656392617D-01
69  6.8000000000000D-01 -1.1674353723940D+00  3.4383733080814D-01
70  6.9000000000000D-01 -1.1629015956873D+00  2.9641975137864D-01
71  7.0000000000000D-01 -1.1534869771043D+00  2.5019989673633D-01
72  7.1000000000000D-01 -1.1390362394067D+00  2.0528693850827D-01
73  7.2000000000000D-01 -1.1194095663898D+00  1.6178278496345D-01
74  7.3000000000000D-01 -1.0944860867726D+00  1.1978175198173D-01
75  7.4000000000000D-01 -1.0641674163487D+00  7.9370271067183D-02
76  7.5000000000000D-01 -1.0283811966492D+00  4.0626636415893D-02
77  7.6000000000000D-01 -9.8708456587985D-01  3.6207928439572D-03
78  7.7000000000000D-01 -9.4026749643334D-01 -3.1585833846446D-02
79  7.8000000000000D-01 -8.8795593286714D-01 -6.4940462735682D-02
80  7.9000000000000D-01 -8.3021466490980D-01 -9.6399038833794D-02
81  8.0000000000000D-01 -7.6714987184098D-01 -1.2592626854129D-01
82  8.1000000000000D-01 -6.9891127746379D-01 -1.5349560906668D-01
83  8.2000000000000D-01 -6.2569385883818D-01 -1.7908921166594D-01
84  8.3000000000000D-01 -5.4773905693094D-01 -2.0269781890399D-01
85  8.4000000000000D-01 -4.6533544330522D-01 -2.2432061648098D-01
86  8.5000000000000D-01 -3.7881880384903D-01 -2.4396504051519D-01
87  8.6000000000000D-01 -2.8857160823870D-01 -2.6164654152502D-01
88  8.7000000000000D-01 -1.9502184224573D-01 -2.7738830670157D-01
89  8.8000000000000D-01 -9.8641189011336D-02 -2.9122094240751D-01
90  8.9000000000000D-01  5.7445098666712D-05 -3.0318211917201D-01
91  9.0000000000000D-01  1.0052305462164D-01 -3.1331618177369D-01
92  9.1000000000000D-01  2.0217029365498D-01 -3.2167372730789D-01
93  9.2000000000000D-01  3.0438384353689D-01 -3.2831115441861D-01
94  9.3000000000000D-01  4.0652335409596D-01 -3.3329018713566D-01
95  9.4000000000000D-01  5.0792891333227D-01 -3.3667737698936D-01
96  9.5000000000000D-01  6.0792699122833D-01 -3.3854358727491D-01
97  9.6000000000000D-01  7.0583679458067D-01 -3.3896346350823D-01
98  9.7000000000000D-01  8.0097696190676D-01 -3.3801489424312D-01
99  9.8000000000000D-01  8.9267252034217D-01 -3.3577846651205D-01
100  9.9000000000000D-01  9.8026202033933D-01 -3.3233692020378D-01
101  1.0000000000000D+00  1.0631047589642D+00 -3.2777460569935D-01
102  1.0100000000000D+00  1.1405879987558D+00 -3.2217694905387D-01
103  1.0200000000000D+00  1.2121340866143D+00 -3.1562992892968D-01
104  1.0300000000000D+00  1.2772073759068D+00 -3.0821956937443D-01
105  1.0400000000000D+00  1.3353208551855D+00 -3.0003145236077D-01
106  1.0500000000000D+00  1.3860423885167D+00 -2.9115025380591D-01
107  1.0600000000000D+00  1.4290004753447D+00 -2.8165930654203D-01
108  1.0700000000000D+00  1.4638894425208D+00 -2.7164019340949D-01
109  1.0800000000000D+00  1.4904739862859D+00 -2.6117237335435D-01
110  1.0900000000000D+00  1.5085929895274D+00 -2.5033284303135D-01
111  1.1000000000000D+00  1.5181625477990D+00 -2.3919583604114D-01
112  1.1100000000000D+00  1.5191781468778D+00 -2.2783256152708D-01
113  1.1200000000000D+00  1.5117159456689D+00 -2.1631098340741D-01
114  1.1300000000000D+00  1.4959331275383D+00 -2.0469564114833D-01
115  1.1400000000000D+00  1.4720672979097D+00 -1.9304751242624D-01
116  1.1500000000000D+00  1.4404349165597D+00 -1.8142391764320D-01
117  1.1600000000000D+00  1.4014287674382D+00 -1.6987846574874D-01
118  1.1700000000000D+00  1.3555144788781D+00 -1.5846104046854D-01
119  1.1800000000000D+00  1.3032261246354D+00 -1.4721782544819D-01
120  1.1900000000000D+00  1.2451609468516D+00 -1.3619136647474D-01
121  1.2000000000000D+00  1.1819732535986D+00 -1.2542066856216D-01
122  1.2100000000000D+00  1.1143675572524D+00 -1.1494132525332D-01
123  1.2200000000000D+00  1.0430910322534D+00 -1.0478567711629D-01
124  1.2300000000000D+00  9.6892537997888D-01 -9.4982996139553D-02
125  1.2400000000000D+00  8.9267819586731D-01 -8.5559692503073D-02
126  1.2500000000000D+00  8.1517394755535D-01 -7.6539539814523D-02
127  1.2600000000000D+00  7.3724467571465D-01 -6.7943914835521D-02
128  1.2700000000000D+00  6.5972053388220D-01 -5.9792047581534D-02
129  1.2800000000000D+00  5.8342029265795D-01 -5.2101277462506D-02
130  1.2900000000000D+00  5.0914193027036D-01 -4.4887311257450D-02
131  1.3000000000000D+00  4.3765343633551D-01 -3.8164478569271D-02
132  1.3100000000000D+00  3.6968395390678D-01 -3.1945980540856D-02
133  1.3200000000000D+00  3.0591537818536D-01 -2.6244127827947D-02
134  1.3300000000000D+00  2.4697453602050D-01 -2.1070563655785D-02
135  1.3400000000000D+00  1.9342605260155D-01 -1.6436468415731D-02
136  1.3500000000000D+00  1.4576601005076D-01 -1.2352742293692D-02
137  1.3600000000000D+00  1.0441650179249D-01 -8.8301624802512D-03
138  1.3700000000000D+00  6.9741181576550D-02 -5.8811498422314D-03
139  1.3800000000000D+00  4.1944467594572D-02 -3.5119067090210D-03
140  1.3900000000000D+00  2.1103947289260D-02 -1.7261975247363D-03
141  1.4000000000000D+00  7.9711087346457D-03 -5.8372908098501D-04
142  1.4100000000000D+00  1.9351939989476D-03 -5.1865699574186D-05
143  1.4200000000000D+00  1.0846960089436D-04  6.3250523828773D-05
144  1.4300000000000D+00 -1.3305216163256D-05  5.4436626797636D-06
145  1.4400000000000D+00  5.8043333467992D-05 -1.6189665826915D-05
146  1.4500000000000D+00 -2.1436110891798D-06  1.3238433875723D-06
147  1.4600000000000D+00 -5.5069482546993D-06  2.4927910548687D-06
148  1.4700000000000D+00 -2.0782562635745D-06 -6.5417811083911D-08
149  1.4800000000000D+00 -1.2348235372583D-06 -3.8868860543404D-08
150  1.4900000000000D+00  0.0000000000000D+00  0.0000000000000D+00
151  1.5000000000000D+00  0.0000000000000D+00  0.0000000000000D+00
152  1.5100000000000D+00  0.0000000000000D+00  0.0000000000000D+00
153  1.5200000000000D+00  0.0000000000000D+00  0.0000000000000D+00
154  1.5300000000000D+00  0.0000000000000D+00  0.0000000000000D+00
155  1.5400000000000D+00  0.0000000000000D+00  0.0000000000000D+00
156  1.5500000000000D+00  0.0000000000000D+00  0.0000000000000D+00
157  1.5600000000000D+00  0.0000000000000D+00  0.0000000000000D+00
158  1.5700000000000D+00  0.0000000000000D+00  0.0000000000000D+00
159  1.5800000000000D+00  0.0000000000000D+00  0.0000000000000D+00
160  1.5900000000000D+00  0.0000000000000D+00  0.0000000000000D+00
161  1.6000000000000D+00  0.0000000000000D+00  0.0000000000000D+00
162  1.6100000000000D+00  0.0000000000000D+00  0.0000000000000D+00
163  1.6200000000000D+00  0.0000000000000D+00  0.0000000000000D+00
164  1.6300000000000D+00  0.0000000000000D+00  0.0000000000000D+00
165  1.6400000000000D+00  0.0000000000000D+00  0.0000000000000D+00
166  1.6500000000000D+00  0.0000000000000D+00  0.0000000000000D+00
167  1.6600000000000D+00  0.0000000000000D+00  0.0000000000000D+00
168  1.6700000000000D+00  0.0000000000000D+00  0.0000000000000D+00
169  1.6800000000000D+00  0.0000000000000D+00  0.0000000000000D+00
170  1.6900000000000D+00  0.0000000000000D+00  0.0000000000000D+00
171  1.7000000000000D+00  0.0000000000000D+00  0.0000000000000D+00
172  1.7100000000000D+00  0.0000000000000D+00  0.0000000000000D+00
173  1.7200000000000D+00  0.0000000000000D+00  0.0000000000000D+00
174  1.7300000000000D+00  0.0000000000000D+00  0.0000000000000D+00
175  1.7400000000000D+00  0.0000000000000D+00  0.0000000000000D+00
176  1.7500000000000D+00  0.0000000000000D+00  0.0000000000000D+00
177  1.7600000000000D+00  0.0000000000000D+00  0.0000000000000D+00
178  1.7700000000000D+00  0.0000000000000D+00  0.0000000000000D+00
179  1.7800000000000D+00  0.0000000000000D+00  0.0000000000000D+00
180  1.7900000000000D+00  0.0000000000000D+00  0.0000000000000D+00
181  1.8000000000000D+00  0.0000000000000D+00  0.0000000000000D+00
182  1.8100000000000D+00  0.0000000000000D+00  0.0000000000000D+00
183  1.8200000000000D+00  0.0000000000000D+00  0.0000000000000D+00
184  1.8300000000000D+00  0.0000000000000D+00  0.0000000000000D+00
185  1.8400000000000D+00  0.0000000000000D+00  0.0000000000000D+00
186  1.8500000000000D+00  0.0000000000000D+00  0.0000000000000D+00
187  1.8600000000000D+00  0.0000000000000D+00  0.0000000000000D+00
188  1.8700000000000D+00  0.0000000000000D+00  0.0000000000000D+00
189  1.8800000000000D+00  0.0000000000000D+00  0.0000000000000D+00
190  1.8900000000000D+00  0.0000000000000D+00  0.0000000000000D+00
191  1.9000000000000D+00  0.0000000000000D+00  0.0000000000000D+00
192  1.9100000000000D+00  0.0000000000000D+00  0.0000000000000D+00
193  1.9200000000000D+00  0.0000000000000D+00  0.0000000000000D+00
194  1.9300000000000D+00  0.0000000000000D+00  0.0000000000000D+00
195  1.9400000000000D+00  0.0000000000000D+00  0.0000000000000D+00
196  1.9500000000000D+00  0.0000000000000D+00  0.0000000000000D+00
197  1.9600000000000D+00  0.0000000000000D+00  0.0000000000000D+00
198  1.9700000000000D+00  0.0000000000000D+00  0.0000000000000D+00
199  1.9800000000000D+00  0.0000000000000D+00  0.0000000000000D+00
200  1.9900000000000D+00  0.0000000000000D+00  0.0000000000000D+00
201  2.0000000000000D+00  0.0000000000000D+00  0.0000000000000D+00
202  2.0100000000000D+00  0.0000000000000D+00  0.0000000000000D+00
203  2.0200000000000D+00  0.0000000000000D+00  0.0000000000000D+00
204  2.0300000000000D+00  0.0000000000000D+00  0.0000000000000D+00
205  2.0400000000000D+00  0.0000000000000D+00  0.0000000000000D+00
206  2.0500000000000D+00  0.0000000000000D+00  0.0000000000000D+00
207  2.0600000000000D+00  0.0000000000000D+00  0.0000000000000D+00
208  2.0700000000000D+00  0.0000000000000D+00  0.0000000000000D+00
209  2.0800000000000D+00  0.0000000000000D+00  0.0000000000000D+00
210  2.0900000000000D+00  0.0000000000000D+00  0.0000000000000D+00
211  2.1000000000000D+00  0.0000000000000D+00  0.0000000000000D+00
212  2.1100000000000D+00  0.0000000000000D+00  0.0000000000000D+00
213  2.1200000000000D+00  0.0000000000000D+00  0.0000000000000D+00
214  2.1300000000000D+00  0.0000000000000D+00  0.0000000000000D+00
215  2.1400000000000D+00  0.0000000000000D+00  0.0000000000000D+00
216  2.1500000000000D+00  0.0000000000000D+00  0.0000000000000D+00
217  2.1600000000000D+00  0.0000000000000D+00  0.0000000000000D+00
218  2.1700000000000D+00  0.0000000000000D+00  0.0000000000000D+00
219  2.1800000000000D+00  0.0000000000000D+00  0.0000000000000D+00
220  2.1900000000000D+00  0.0000000000000D+00  0.0000000000000D+00
221  2.2000000000000D+00  0.0000000000000D+00  0.0000000000000D+00
222  2.2100000000000D+00  0.0000000000000D+00  0.0000000000000D+00
223  2.2200000000000D+00  0.0000000000000D+00  0.0000000000000D+00
224  2.2300000000000D+00  0.0000000000000D+00  0.0000000000000D+00
225  2.2400000000000D+00  0.0000000000000D+00  0.0000000000000D+00
226  2.2500000000000D+00  0.0000000000000D+00  0.0000000000000D+00
227  2.2600000000000D+00  0.0000000000000D+00  0.0000000000000D+00
228  2.2700000000000D+00  0.0000000000000D+00  0.0000000000000D+00
229  2.2800000000000D+00  0.0000000000000D+00  0.0000000000000D+00
230  2.2900000000000D+00  0.0000000000000D+00  0.0000000000000D+00
231  2.3000000000000D+00  0.0000000000000D+00  0.0000000000000D+00
232  2.3100000000000D+00  0.0000000000000D+00  0.0000000000000D+00
233  2.3200000000000D+00  0.0000000000000D+00  0.0000000000000D+00
234  2.3300000000000D+00  0.0000000000000D+00  0.0000000000000D+00
235  2.3400000000000D+00  0.0000000000000D+00  0.0000000000000D+00
236  2.3500000000000D+00  0.0000000000000D+00  0.0000000000000D+00
237  2.3600000000000D+00  0.0000000000000D+00  0.0000000000000D+00
238  2.3700000000000D+00  0.0000000000000D+00  0.0000000000000D+00
239  2.3800000000000D+00  0.0000000000000D+00  0.0000000000000D+00
240  2.3900000000000D+00  0.0000000000000D+00  0.0000000000000D+00
241  2.4000000000000D+00  0.0000000000000D+00  0.0000000000000D+00
242  2.4100000000000D+00  0.0000000000000D+00  0.0000000000000D+00
243  2.4200000000000D+00  0.0000000000000D+00  0.0000000000000D+00
244  2.4300000000000D+00  0.0000000000000D+00  0.0000000000000D+00
245  2.4400000000000D+00  0.0000000000000D+00  0.0000000000000D+00
246  2.4500000000000D+00  0.0000000000000D+00  0.0000000000000D+00
247  2.4600000000000D+00  0.0000000000000D+00  0.0000000000000D+00
248  2.4700000000000D+00  0.0000000000000D+00  0.0000000000000D+00
249  2.4800000000000D+00  0.0000000000000D+00  0.0000000000000D+00
250  2.4900000000000D+00  0.0000000000000D+00  0.0000000000000D+00
251  2.5000000000000D+00  0.0000000000000D+00  0.0000000000000D+00
252  2.5100000000000D+00  0.0000000000000D+00  0.0000000000000D+00
253  2.5200000000000D+00  0.0000000000000D+00  0.0000000000000D+00
254  2.5300000000000D+00  0.0000000000000D+00  0.0000000000000D+00
255  2.5400000000000D+00  0.0000000000000D+00  0.0000000000000D+00
256  2.5500000000000D+00  0.0000000000000D+00  0.0000000000000D+00
257  2.5600000000000D+00  0.0000000000000D+00  0.0000000000000D+00
258  2.5700000000000D+00  0.0000000000000D+00  0.0000000000000D+00
259  2.5800000000000D+00  0.0000000000000D+00  0.0000000000000D+00
260  2.5900000000000D+00  0.0000000000000D+00  0.0000000000000D+00
261  2.6000000000000D+00  0.0000000000000D+00  0.0000000000000D+00
262  2.6100000000000D+00  0.0000000000000D+00  0.0000000000000D+00
263  2.6200000000000D+00  0.0000000000000D+00  0.0000000000000D+00
264  2.6300000000000D+00  0.0000000000000D+00  0.0000000000000D+00
265  2.6400000000000D+00  0.0000000000000D+00  0.0000000000000D+00
266  2.6500000000000D+00  0.0000000000000D+00  0.0000000000000D+00
267  2.6600000000000D+00  0.0000000000000D+00  0.0000000000000D+00
268  2.6700000000000D+00  0.0000000000000D+00  0.0000000000000D+00
269  2.6800000000000D+00  0.0000000000000D+00  0.0000000000000D+00
270  2.6900000000000D+00  0.0000000000000D+00  0.0000000000000D+00
271  2.7000000000000D+00  0.0000000000000D+00  0.0000000000000D+00
272  2.7100000000000D+00  0.0000000000000D+00  0.0000000000000D+00
273  2.7200000000000D+00  0.0000000000000D+00  0.0000000000000D+00
274  2.7300000000000D+00  0.0000000000000D+00  0.0000000000000D+00
275  2.7400000000000D+00  0.0000000000000D+00  0.0000000000000D+00
276  2.7500000000000D+00  0.0000000000000D+00  0.0000000000000D+00
277  2.7600000000000D+00  0.0000000000000D+00  0.0000000000000D+00
278  2.7700000000000D+00  0.0000000000000D+00  0.0000000000000D+00
279  2.7800000000000D+00  0.0000000000000D+00  0.0000000000000D+00
280  2.7900000000000D+00  0.0000000000000D+00  0.0000000000000D+00
281  2.8000000000000D+00  0.0000000000000D+00  0.0000000000000D+00
282  2.8100000000000D+00  0.0000000000000D+00  0.0000000000000D+00
283  2.8200000000000D+00  0.0000000000000D+00  0.0000000000000D+00
284  2.8300000000000D+00  0.0000000000000D+00  0.0000000000000D+00
285  2.8400000000000D+00  0.0000000000000D+00  0.0000000000000D+00
286  2.8500000000000D+00  0.0000000000000D+00  0.0000000000000D+00
287  2.8600000000000D+00  0.0000000000000D+00  0.0000000000000D+00
288  2.8700000000000D+00  0.0000000000000D+00  0.0000000000000D+00
289  2.8800000000000D+00  0.0000000000000D+00  0.0000000000000D+00
290  2.8900000000000D+00  0.0000000000000D+00  0.0000000000000D+00
291  2.9000000000000D+00  0.0000000000000D+00  0.0000000000000D+00
292  2.9100000000000D+00  0.0000000000000D+00  0.0000000000000D+00
293  2.9200000000000D+00  0.0000000000000D+00  0.0000000000000D+00
294  2.9300000000000D+00  0.0000000000000D+00  0.0000000000000D+00
295  2.9400000000000D+00  0.0000000000000D+00  0.0000000000000D+00
296  2.9500000000000D+00  0.0000000000000D+00  0.0000000000000D+00
297  2.9600000000000D+00  0.0000000000000D+00  0.0000000000000D+00
298  2.9700000000000D+00  0.0000000000000D+00  0.0000000000000D+00
299  2.9800000000000D+00  0.0000000000000D+00  0.0000000000000D+00
300  2.9900000000000D+00  0.0000000000000D+00  0.0000000000000D+00
301  3.0000000000000D+00  0.0000000000000D+00  0.0000000000000D+00
302  3.0100000000000D+00  0.0000000000000D+00  0.0000000000000D+00
303  3.0200000000000D+00  0.0000000000000D+00  0.0000000000000D+00
304  3.0300000000000D+00  0.0000000000000D+00  0.0000000000000D+00
305  3.0400000000000D+00  0.0000000000000D+00  0.0000000000000D+00
306  3.0500000000000D+00  0.0000000000000D+00  0.0000000000000D+00
307  3.0600000000000D+00  0.0000000000000D+00  0.0000000000000D+00
308  3.0700000000000D+00  0.0000000000000D+00  0.0000000000000D+00
309  3.0800000000000D+00  0.0000000000000D+00  0.0000000000000D+00
310  3.0900000000000D+00  0.0000000000000D+00  0.0000000000000D+00
311  3.1000000000000D+00  0.0000000000000D+00  0.0000000000000D+00
312  3.1100000000000D+00  0.0000000000000D+00  0.0000000000000D+00
313  3.1200000000000D+00  0.0000000000000D+00  0.0000000000000D+00
314  3.1300000000000D+00  0.0000000000000D+00  0.0000000000000D+00
315  3.1400000000000D+00  0.0000000000000D+00  0.0000000000000D+00
316  3.1500000000000D+00  0.0000000000000D+00  0.0000000000000D+00
317  3.1600000000000D+00  0.0000000000000D+00  0.0000000000000D+00
318  3.1700000000000D+00  0.0000000000000D+00  0.0000000000000D+00
319  3.1800000000000D+00  0.0000000000000D+00  0.0000000000000D+00
320  3.1900000000000D+00  0.0000000000000D+00  0.0000000000000D+00
321  3.2000000000000D+00  0.0000000000000D+00  0.0000000000000D+00
322  3.2100000000000D+00  0.0000000000000D+00  0.0000000000000D+00
323  3.2200000000000D+00  0.0000000000000D+00  0.0000000000000D+00
324  3.2300000000000D+00  0.0000000000000D+00  0.0000000000000D+00
325  3.2400000000000D+00  0.0000000000000D+00  0.0000000000000D+00
326  3.2500000000000D+00  0.0000000000000D+00  0.0000000000000D+00
327  3.2600000000000D+00  0.0000000000000D+00  0.0000000000000D+00
328  3.2700000000000D+00  0.0000000000000D+00  0.0000000000000D+00
329  3.2800000000000D+00  0.0000000000000D+00  0.0000000000000D+00
330  3.2900000000000D+00  0.0000000000000D+00  0.0000000000000D+00
331  3.3000000000000D+00  0.0000000000000D+00  0.0000000000000D+00
332  3.3100000000000D+00  0.0000000000000D+00  0.0000000000000D+00
333  3.3200000000000D+00  0.0000000000000D+00  0.0000000000000D+00
334  3.3300000000000D+00  0.0000000000000D+00  0.0000000000000D+00
335  3.3400000000000D+00  0.0000000000000D+00  0.0000000000000D+00
336  3.3500000000000D+00  0.0000000000000D+00  0.0000000000000D+00
337  3.3600000000000D+00  0.0000000000000D+00  0.0000000000000D+00
338  3.3700000000000D+00  0.0000000000000D+00  0.0000000000000D+00
339  3.3800000000000D+00  0.0000000000000D+00  0.0000000000000D+00
340  3.3900000000000D+00  0.0000000000000D+00  0.0000000000000D+00
341  3.4000000000000D+00  0.0000000000000D+00  0.0000000000000D+00
342  3.4100000000000D+00  0.0000000000000D+00  0.0000000000000D+00
343  3.4200000000000D+00  0.0000000000000D+00  0.0000000000000D+00
344  3.4300000000000D+00  0.0000000000000D+00  0.0000000000000D+00
345  3.4400000000000D+00  0.0000000000000D+00  0.0000000000000D+00
346  3.4500000000000D+00  0.0000000000000D+00  0.0000000000000D+00
347  3.4600000000000D+00  0.0000000000000D+00  0.0000000000000D+00
348  3.4700000000000D+00  0.0000000000000D+00  0.0000000000000D+00
349  3.4800000000000D+00  0.0000000000000D+00  0.0000000000000D+00
350  3.4900000000000D+00  0.0000000000000D+00  0.0000000000000D+00
351  3.5000000000000D+00  0.0000000000000D+00  0.0000000000000D+00
352  3.5100000000000D+00  0.0000000000000D+00  0.0000000000000D+00
353  3.5200000000000D+00  0.0000000000000D+00  0.0000000000000D+00
354  3.5300000000000D+00  0.0000000000000D+00  0.0000000000000D+00
355  3.5400000000000D+00  0.0000000000000D+00  0.0000000000000D+00
356  3.5500000000000D+00  0.0000000000000D+00  0.0000000000000D+00
357  3.5600000000000D+00  0.0000000000000D+00  0.0000000000000D+00
358  3.5700000000000D+00  0.0000000000000D+00  0.0000000000000D+00
359  3.5800000000000D+00  0.0000000000000D+00  0.0000000000000D+00
360  3.5900000000000D+00  0.0000000000000D+00  0.0000000000000D+00
361  3.6000000000000D+00  0.0000000000000D+00  0.0000000000000D+00
362  3.6100000000000D+00  0.0000000000000D+00  0.0000000000000D+00
363  3.6200000000000D+00  0.0000000000000D+00  0.0000000000000D+00
364  3.6300000000000D+00  0.0000000000000D+00  0.0000000000000D+00
365  3.6400000000000D+00  0.0000000000000D+00  0.0000000000000D+00
366  3.6500000000000D+00  0.0000000000000D+00  0.0000000000000D+00
367  3.6600000000000D+00  0.0000000000000D+00  0.0000000000000D+00
368  3.6700000000000D+00  0.0000000000000D+00  0.0000000000000D+00
369  3.6800000000000D+00  0.0000000000000D+00  0.0000000000000D+00
370  3.6900000000000D+00  0.0000000000000D+00  0.0000000000000D+00
371  3.7000000000000D+00  0.0000000000000D+00  0.0000000000000D+00
372  3.7100000000000D+00  0.0000000000000D+00  0.0000000000000D+00
373  3.7200000000000D+00  0.0000000000000D+00  0.0000000000000D+00
374  3.7300000000000D+00  0.0000000000000D+00  0.0000000000000D+00
375  3.7400000000000D+00  0.0000000000000D+00  0.0000000000000D+00
376  3.7500000000000D+00  0.0000000000000D+00  0.0000000000000D+00
377  3.7600000000000D+00  0.0000000000000D+00  0.0000000000000D+00
378  3.7700000000000D+00  0.0000000000000D+00  0.0000000000000D+00
379  3.7800000000000D+00  0.0000000000000D+00  0.0000000000000D+00
380  3.7900000000000D+00  0.0000000000000D+00  0.0000000000000D+00
381  3.8000000000000D+00  0.0000000000000D+00  0.0000000000000D+00
382  3.8100000000000D+00  0.0000000000000D+00  0.0000000000000D+00
383  3.8200000000000D+00  0.0000000000000D+00  0.0000000000000D+00
384  3.8300000000000D+00  0.0000000000000D+00  0.0000000000000D+00
385  3.8400000000000D+00  0.0000000000000D+00  0.0000000000000D+00
386  3.8500000000000D+00  0.0000000000000D+00  0.0000000000000D+00
387  3.8600000000000D+00  0.0000000000000D+00  0.0000000000000D+00
388  3.8700000000000D+00  0.0000000000000D+00  0.0000000000000D+00
389  3.8800000000000D+00  0.0000000000000D+00  0.0000000000000D+00
390  3.8900000000000D+00  0.0000000000000D+00  0.0000000000000D+00
391  3.9000000000000D+00  0.0000000000000D+00  0.0000000000000D+00
392  3.9100000000000D+00  0.0000000000000D+00  0.0000000000000D+00
393  3.9200000000000D+00  0.0000000000000D+00  0.0000000000000D+00
394  3.9300000000000D+00  0.0000000000000D+00  0.0000000000000D+00
395  3.9400000000000D+00  0.0000000000000D+00  0.0000000000000D+00
396  3.9500000000000D+00  0.0000000000000D+00  0.0000000000000D+00
397  3.9600000000000D+00  0.0000000000000D+00  0.0000000000000D+00
398  3.9700000000000D+00  0.0000000000000D+00  0.0000000000000D+00
399  3.9800000000000D+00  0.0000000000000D+00  0.0000000000000D+00
400  3.9900000000000D+00  0.0000000000000D+00  0.0000000000000D+00
401  4.0000000000000D+00  0.0000000000000D+00  0.0000000000000D+00
402  4.0100000000000D+00  0.0000000000000D+00  0.0000000000000D+00
403  4.0200000000000D+00  0.0000000000000D+00  0.0000000000000D+00
404  4.0300000000000D+00  0.0000000000000D+00  0.0000000000000D+00
405  4.0400000000000D+00  0.0000000000000D+00  0.0000000000000D+00
406  4.0500000000000D+00  0.0000000000000D+00  0.0000000000000D+00
407  4.0600000000000D+00  0.0000000000000D+00  0.0000000000000D+00
408  4.0700000000000D+00  0.0000000000000D+00  0.0000000000000D+00
409  4.0800000000000D+00  0.0000000000000D+00  0.0000000000000D+00
410  4.0900000000000D+00  0.0000000000000D+00  0.0000000000000D+00
411  4.1000000000000D+00  0.0000000000000D+00  0.0000000000000D+00
412  4.1100000000000D+00  0.0000000000000D+00  0.0000000000000D+00
413  4.1200000000000D+00  0.0000000000000D+00  0.0000000000000D+00
414  4.1300000000000D+00  0.0000000000000D+00  0.0000000000000D+00
415  4.1400000000000D+00  0.0000000000000D+00  0.0000000000000D+00
416  4.1500000000000D+00  0.0000000000000D+00  0.0000000000000D+00
417  4.1600000000000D+00  0.0000000000000D+00  0.0000000000000D+00
418  4.1700000000000D+00  0.0000000000000D+00  0.0000000000000D+00
419  4.1800000000000D+00  0.0000000000000D+00  0.0000000000000D+00
420  4.1900000000000D+00  0.0000000000000D+00  0.0000000000000D+00
421  4.2000000000000D+00  0.0000000000000D+00  0.0000000000000D+00
422  4.2100000000000D+00  0.0000000000000D+00  0.0000000000000D+00
423  4.2200000000000D+00  0.0000000000000D+00  0.0000000000000D+00
424  4.2300000000000D+00  0.0000000000000D+00  0.0000000000000D+00
425  4.2400000000000D+00  0.0000000000000D+00  0.0000000000000D+00
426  4.2500000000000D+00  0.0000000000000D+00  0.0000000000000D+00
427  4.2600000000000D+00  0.0000000000000D+00  0.0000000000000D+00
428  4.2700000000000D+00  0.0000000000000D+00  0.0000000000000D+00
429  4.2800000000000D+00  0.0000000000000D+00  0.0000000000000D+00
430  4.2900000000000D+00  0.0000000000000D+00  0.0000000000000D+00
431  4.3000000000000D+00  0.0000000000000D+00  0.0000000000000D+00
432  4.3100000000000D+00  0.0000000000000D+00  0.0000000000000D+00
433  4.3200000000000D+00  0.0000000000000D+00  0.0000000000000D+00
434  4.3300000000000D+00  0.0000000000000D+00  0.0000000000000D+00
435  4.3400000000000D+00  0.0000000000000D+00  0.0000000000000D+00
436  4.3500000000000D+00  0.0000000000000D+00  0.0000000000000D+00
437  4.3600000000000D+00  0.0000000000000D+00  0.0000000000000D+00
438  4.3700000000000D+00  0.0000000000000D+00  0.0000000000000D+00
439  4.3800000000000D+00  0.0000000000000D+00  0.0000000000000D+00
440  4.3900000000000D+00  0.0000000000000D+00  0.0000000000000D+00
441  4.4000000000000D+00  0.0000000000000D+00  0.0000000000000D+00
442  4.4100000000000D+00  0.0000000000000D+00  0.0000000000000D+00
443  4.4200000000000D+00  0.0000000000000D+00  0.0000000000000D+00