As    ONCVPSP-3.3.0  r_core=   1.76603   1.70395   1.80867
33.0000     15.0000      180430    zatom,zion,pspd
8 -116133   2     4   600     0    pspcod,pspxc,lmax,lloc,mmax,r2well
5.99000000  5.00000000  0.00000000    rchrg fchrg qchrg
2     4     2     0    nproj
3     1           extension_switch
4     3     0    nprojso
0                         8.6872513660866D-01  8.2707523263082D+00
1  0.0000000000000D+00 -6.3500565916641D-11  5.5025983769497D-12
2  1.0000000000000D-02 -1.8037837973877D-02  3.6476908956546D-02
3  2.0000000000000D-02 -3.6066803819218D-02  7.2935860607603D-02
4  3.0000000000000D-02 -5.4077805291748D-02  1.0935883962219D-01
5  4.0000000000000D-02 -7.2061311985008D-02  1.4572771502227D-01
6  5.0000000000000D-02 -9.0007141406297D-02  1.8202418336774D-01
7  6.0000000000000D-02 -1.0790425119585D-01  2.1822971314778D-01
8  7.0000000000000D-02 -1.2574053946189D-01  2.5432549077420D-01
9  8.0000000000000D-02 -1.4350265514092D-01  2.9029236856709D-01
10  9.0000000000000D-02 -1.6117582021368D-01  3.2611081511594D-01
11  1.0000000000000D-01 -1.7874366551493D-01  3.6176086839120D-01
12  1.1000000000000D-01 -1.9618808176836D-01  3.9722209197159D-01
13  1.2000000000000D-01 -2.1348908735895D-01  4.3247353474105D-01
14  1.3000000000000D-01 -2.3062471422392D-01  4.6749369439689D-01
15  1.4000000000000D-01 -2.4757091310188D-01  5.0226048509661D-01
16  1.5000000000000D-01 -2.6430147922773D-01  5.3675120955502D-01
17  1.6000000000000D-01 -2.8078799940132D-01  5.7094253588692D-01
18  1.7000000000000D-01 -2.9699982119016D-01  6.0481047947153D-01
19  1.8000000000000D-01 -3.1290404485322D-01  6.3833039009540D-01
20  1.9000000000000D-01 -3.2846553839512D-01  6.7147694460904D-01
21  2.0000000000000D-01 -3.4364697597849D-01  7.0422414530959D-01
22  2.1000000000000D-01 -3.5840889973968D-01  7.3654532423793D-01
23  2.2000000000000D-01 -3.7270980486907D-01  7.6841315355267D-01
24  2.3000000000000D-01 -3.8650624763534D-01  7.9979966211686D-01
25  2.4000000000000D-01 -3.9975297585266D-01  8.3067625840479D-01
26  2.5000000000000D-01 -4.1240308111370D-01  8.6101375980673D-01
27  2.6000000000000D-01 -4.2440817194043D-01  8.9078242837910D-01
28  2.7000000000000D-01 -4.3571856683967D-01  9.1995201305529D-01
29  2.8000000000000D-01 -4.4628350609421D-01  9.4849179830014D-01
30  2.9000000000000D-01 -4.5605138097137D-01  9.7637065915695D-01
31  3.0000000000000D-01 -4.6496997889402D-01  1.0035571226019D+00
32  3.1000000000000D-01 -4.7298674299116D-01  1.0300194350855D+00
33  3.2000000000000D-01 -4.8004904433119D-01  1.0557256361042D+00
34  3.3000000000000D-01 -4.8610446503829D-01  1.0806436376122D+00
35  3.4000000000000D-01 -4.9110109040439D-01  1.1047413090430D+00
36  3.5000000000000D-01 -4.9498780803476D-01  1.1279865676790D+00
37  3.6000000000000D-01 -4.9771461200589D-01  1.1503474740665D+00
38  3.7000000000000D-01 -4.9923290997013D-01  1.1717923321431D+00
39  3.8000000000000D-01 -4.9949583111256D-01  1.1922897937056D+00
40  3.9000000000000D-01 -4.9845853285245D-01  1.2118089668138D+00
41  4.0000000000000D-01 -4.9607850418381D-01  1.2303195276927D+00
42  4.1000000000000D-01 -4.9231586356776D-01  1.2477918356643D+00
43  4.2000000000000D-01 -4.8713364932213D-01  1.2641970506080D+00
44  4.3000000000000D-01 -4.8049810050254D-01  1.2795072524225D+00
45  4.4000000000000D-01 -4.7237892633116D-01  1.2936955619330D+00
46  4.5000000000000D-01 -4.6274956230672D-01  1.3067362626651D+00
47  4.6000000000000D-01 -4.5158741121866D-01  1.3186049228845D+00
48  4.7000000000000D-01 -4.3887406739147D-01  1.3292785172801D+00
49  4.8000000000000D-01 -4.2459552259873D-01  1.3387355476557D+00
50  4.9000000000000D-01 -4.0874235221149D-01  1.3469561619774D+00
51  5.0000000000000D-01 -3.9130988028058D-01  1.3539222711178D+00
52  5.1000000000000D-01 -3.7229832239442D-01  1.3596176626294D+00
53  5.2000000000000D-01 -3.5171290530549D-01  1.3640281108755D+00
54  5.3000000000000D-01 -3.2956396247466D-01  1.3671414828507D+00
55  5.4000000000000D-01 -3.0586700484406D-01  1.3689478390249D+00
56  5.5000000000000D-01 -2.8064276631523D-01  1.3694395285543D+00
57  5.6000000000000D-01 -2.5391722357558D-01  1.3686112782158D+00
58  5.7000000000000D-01 -2.2572159008611D-01  1.3664602744376D+00
59  5.8000000000000D-01 -1.9609228421106D-01  1.3629862378190D+00
60  5.9000000000000D-01 -1.6507087163689D-01  1.3581914895598D+00
61  6.0000000000000D-01 -1.3270398239255D-01  1.3520810092455D+00
62  6.1000000000000D-01 -9.9043202942605D-02  1.3446624834708D+00
63  6.2000000000000D-01 -6.4144943979596D-02  1.3359463448192D+00
64  6.3000000000000D-01 -2.8070284690607D-02  1.3259458007584D+00
65  6.4000000000000D-01  9.1152055860189D-03  1.3146768520556D+00
66  6.5000000000000D-01  4.7341667265359D-02  1.3021583003658D+00
67  6.6000000000000D-01  8.6535170809753D-02  1.2884117446966D+00
68  6.7000000000000D-01  1.2661795612694D-01  1.2734615665085D+00
69  6.8000000000000D-01  1.6750868968471D-01  1.2573349032677D+00
70  6.9000000000000D-01  2.0912273786356D-01  1.2400616103258D+00
71  7.0000000000000D-01  2.5137245498968D-01  1.2216742110677D+00
72  7.1000000000000D-01  2.9416748442433D-01  1.2022078353263D+00
73  7.2000000000000D-01  3.3741507103140D-01  1.1817001461349D+00
74  7.3000000000000D-01  3.8102038330417D-01  1.1601912549489D+00
75  7.4000000000000D-01  4.2488684340395D-01  1.1377236255393D+00
76  7.5000000000000D-01  4.6891646334839D-01  1.1143419668254D+00
77  7.6000000000000D-01  5.1301018558475D-01  1.0900931149816D+00
78  7.7000000000000D-01  5.5706822619323D-01  1.0650259052212D+00
79  7.8000000000000D-01  6.0099041898830D-01  1.0391910337218D+00
80  7.9000000000000D-01  6.4467655881954D-01  1.0126409102235D+00
81  8.0000000000000D-01  6.8802674241869D-01  9.8542950189122D-01
82  8.1000000000000D-01  7.3094170519524D-01  9.5761216909098D-01
83  8.2000000000000D-01  7.7332315244851D-01  9.2924549378715D-01
84  8.3000000000000D-01  8.1507408353827D-01  9.0038710131853D-01
85  8.4000000000000D-01  8.5609910763853D-01  8.7109547636136D-01
86  8.5000000000000D-01  8.9630474978958D-01  8.4142977393062D-01
87  8.6000000000000D-01  9.3559974605796D-01  8.1144962631164D-01
88  8.7000000000000D-01  9.7389532671672D-01  7.8121494684827D-01
89  8.8000000000000D-01  1.0111054864634D+00  7.5078573154374D-01
90  8.9000000000000D-01  1.0471472408010D+00  7.2022185945445D-01
91  9.0000000000000D-01  1.0819408678192D+00  6.8958289287482D-01
92  9.1000000000000D-01  1.1154101347247D+00  6.5892787832348D-01
93  9.2000000000000D-01  1.1474825085804D+00  6.2831514934739D-01
94  9.3000000000000D-01  1.1780893508255D+00  5.9780213215953D-01
95  9.4000000000000D-01  1.2071660952570D+00  5.6744515511917D-01
96  9.5000000000000D-01  1.2346524092583D+00  5.3729926305052D-01
97  9.6000000000000D-01  1.2604923381650D+00  5.0741803737552D-01
98  9.7000000000000D-01  1.2846344327536D+00  4.7785342301004D-01
99  9.8000000000000D-01  1.3070318599309D+00  4.4865556294130D-01
100  9.9000000000000D-01  1.3276424967915D+00  4.1987264136439D-01
101  1.0000000000000D+00  1.3464290082855D+00  3.9155073621174D-01
102  1.0100000000000D+00  1.3633589088150D+00  3.6373368185921D-01
103  1.0200000000000D+00  1.3784046081401D+00  3.3646294273640D-01
104  1.0300000000000D+00  1.3915434420323D+00  3.0977749850843D-01
105  1.0400000000000D+00  1.4027576881642D+00  2.8371374142881D-01
106  1.0500000000000D+00  1.4120345677585D+00  2.5830538639917D-01
107  1.0600000000000D+00  1.4193662335584D+00  2.3358339419015D-01
108  1.0700000000000D+00  1.4247497446980D+00  2.0957590820692D-01
109  1.0800000000000D+00  1.4281870290718D+00  1.8630820510144D-01
110  1.0900000000000D+00  1.4296848338027D+00  1.6380265944681D-01
111  1.1000000000000D+00  1.4292546644143D+00  1.4207872262008D-01
112  1.1100000000000D+00  1.4269127132982D+00  1.2115291593618D-01
113  1.1200000000000D+00  1.4226797780570D+00  1.0103883800541D-01
114  1.1300000000000D+00  1.4165811702759D+00  8.1747186190955D-02
115  1.1400000000000D+00  1.4086466152557D+00  6.3285791973224D-02
116  1.1500000000000D+00  1.3989101432020D+00  4.5659669931248D-02
117  1.1600000000000D+00  1.3874099723307D+00  2.8871079977236D-02
118  1.1700000000000D+00  1.3741883843029D+00  1.2919602394922D-02
119  1.1800000000000D+00  1.3592915923744D+00 -2.1977748209978D-03
120  1.1900000000000D+00  1.3427696025830D+00 -1.6486556926522D-02
121  1.2000000000000D+00  1.3246760682545D+00 -2.9954632344784D-02
122  1.2100000000000D+00  1.3050681380654D+00 -4.2612152253813D-02
123  1.2200000000000D+00  1.2840062978563D+00 -5.4471400614156D-02
124  1.2300000000000D+00  1.2615542063312D+00 -6.5546655472810D-02
125  1.2400000000000D+00  1.2377785247403D+00 -7.5854042413614D-02
126  1.2500000000000D+00  1.2127487406215D+00 -8.5411381050370D-02
127  1.2600000000000D+00  1.1865369856055D+00 -9.4238025521839D-02
128  1.2700000000000D+00  1.1592178472766D+00 -1.0235469994803D-01
129  1.2800000000000D+00  1.1308681750623D+00 -1.0978332982852D-01
130  1.2900000000000D+00  1.1015668800733D+00 -1.1654687038992D-01
131  1.3000000000000D+00  1.0713947288240D+00 -1.2266913286978D-01
132  1.3100000000000D+00  1.0404341307445D+00 -1.2817460974404D-01
133  1.3200000000000D+00  1.0087689193799D+00 -1.3308829988197D-01
134  1.3300000000000D+00  9.7648412720336D-01 -1.3743553457922D-01
135  1.3400000000000D+00  9.4366575393571D-01 -1.4124180544731D-01
136  1.3500000000000D+00  9.1040052832610D-01 -1.4453259503668D-01
137  1.3600000000000D+00  8.7677566335020D-01 -1.4733321107497D-01
138  1.3700000000000D+00  8.4287860478232D-01 -1.4966862518616D-01
139  1.3800000000000D+00  8.0879677322359D-01 -1.5156331680026D-01
140  1.3900000000000D+00  7.7461729959124D-01 -1.5304112305800D-01
141  1.4000000000000D+00  7.4042675421252D-01 -1.5412509533970D-01
142  1.4100000000000D+00  7.0631086973521D-01 -1.5483736298333D-01
143  1.4200000000000D+00  6.7235425797155D-01 -1.5519900484945D-01
144  1.4300000000000D+00  6.3864012112213D-01 -1.5522992903798D-01
145  1.4400000000000D+00  6.0524995760536D-01 -1.5494876129899D-01
146  1.4500000000000D+00  5.7226326299334D-01 -1.5437274238409D-01
147  1.4600000000000D+00  5.3975722659829D-01 -1.5351763455168D-01
148  1.4700000000000D+00  5.0780642413793D-01 -1.5239763754635D-01
149  1.4800000000000D+00  4.7648250737991D-01 -1.5102531390867D-01
150  1.4900000000000D+00  4.4585389121134D-01 -1.4941152391746D-01
151  1.5000000000000D+00  4.1598543919805D-01 -1.4756536985990D-01
152  1.5100000000000D+00  3.8693814833473D-01 -1.4549414968076D-01
153  1.5200000000000D+00  3.5876883399984D-01 -1.4320331975792D-01
154  1.5300000000000D+00  3.3152981617053D-01 -1.4069646650729D-01
155  1.5400000000000D+00  3.0526860783079D-01 -1.3797528664789D-01
156  1.5500000000000D+00  2.8002760614481D-01 -1.3503957538282D-01
157  1.5600000000000D+00  2.5584378841401D-01 -1.3188722256991D-01
158  1.5700000000000D+00  2.3274841653545D-01 -1.2851421644842D-01
159  1.5800000000000D+00  2.1076674385835D-01 -1.2491465380598D-01
160  1.5900000000000D+00  1.8991785671076D-01 -1.2108078067207D-01
161  1.6000000000000D+00  1.7021398713402D-01 -1.1700293305623D-01
162  1.6100000000000D+00  1.5166052594371D-01 -1.1266961957364D-01
163  1.6200000000000D+00  1.3425715374720D-01 -1.0806781698804D-01
164  1.6300000000000D+00  1.1799860701346D-01 -1.0318321343753D-01
165  1.6400000000000D+00  1.0287578661106D-01 -9.8000536736611D-02
166  1.6500000000000D+00  8.8876084106405D-02 -9.2503728292156D-02
167  1.6600000000000D+00  7.5982844084034D-02 -8.6675954154541D-02
168  1.6700000000000D+00  6.4175302067289D-02 -8.0499700193942D-02
169  1.6800000000000D+00  5.3428532807029D-02 -7.3956861953556D-02
170  1.6900000000000D+00  4.3713325972962D-02 -6.7028815419564D-02
171  1.7000000000000D+00  3.4996106711422D-02 -5.9696488783794D-02
172  1.7100000000000D+00  2.7229499046515D-02 -5.1901222974015D-02
173  1.7200000000000D+00  2.0390419310807D-02 -4.3704793114985D-02
174  1.7300000000000D+00  1.4503058311371D-02 -3.5365496148785D-02
175  1.7400000000000D+00  9.3636764510075D-03 -2.6265371768370D-02
176  1.7500000000000D+00  4.6164507407462D-03 -1.5268447539128D-02
177  1.7600000000000D+00  7.4172644089719D-04 -4.3692121051929D-03
178  1.7700000000000D+00 -1.0330073171264D-03  1.5948251895974D-03
179  1.7800000000000D+00 -6.8560221867174D-04  1.5219632596097D-03
180  1.7900000000000D+00  1.1390867782048D-04 -2.3533435928494D-04
181  1.8000000000000D+00  2.0542544381284D-04 -4.4530181345928D-04
182  1.8100000000000D+00 -9.0044326555477D-06  1.5404318558237D-05
183  1.8200000000000D+00 -3.8109860235812D-05  6.6734135363684D-05
184  1.8300000000000D+00 -1.9008621093892D-06  3.3841451103740D-06
185  1.8400000000000D+00  1.9996888361663D-06 -8.2522881141497D-07
186  1.8500000000000D+00  6.2053833749326D-07 -2.5608289921182D-07
187  1.8600000000000D+00  0.0000000000000D+00  0.0000000000000D+00
188  1.8700000000000D+00  0.0000000000000D+00  0.0000000000000D+00
189  1.8800000000000D+00  0.0000000000000D+00  0.0000000000000D+00
190  1.8900000000000D+00  0.0000000000000D+00  0.0000000000000D+00
191  1.9000000000000D+00  0.0000000000000D+00  0.0000000000000D+00
192  1.9100000000000D+00  0.0000000000000D+00  0.0000000000000D+00
193  1.9200000000000D+00  0.0000000000000D+00  0.0000000000000D+00
194  1.9300000000000D+00  0.0000000000000D+00  0.0000000000000D+00
195  1.9400000000000D+00  0.0000000000000D+00  0.0000000000000D+00
196  1.9500000000000D+00  0.0000000000000D+00  0.0000000000000D+00
197  1.9600000000000D+00  0.0000000000000D+00  0.0000000000000D+00
198  1.9700000000000D+00  0.0000000000000D+00  0.0000000000000D+00
199  1.9800000000000D+00  0.0000000000000D+00  0.0000000000000D+00
200  1.9900000000000D+00  0.0000000000000D+00  0.0000000000000D+00
201  2.0000000000000D+00  0.0000000000000D+00  0.0000000000000D+00
202  2.0100000000000D+00  0.0000000000000D+00  0.0000000000000D+00
203  2.0200000000000D+00  0.0000000000000D+00  0.0000000000000D+00
204  2.0300000000000D+00  0.0000000000000D+00  0.0000000000000D+00
205  2.0400000000000D+00  0.0000000000000D+00  0.0000000000000D+00
206  2.0500000000000D+00  0.0000000000000D+00  0.0000000000000D+00
207  2.0600000000000D+00  0.0000000000000D+00  0.0000000000000D+00
208  2.0700000000000D+00  0.0000000000000D+00  0.0000000000000D+00
209  2.0800000000000D+00  0.0000000000000D+00  0.0000000000000D+00
210  2.0900000000000D+00  0.0000000000000D+00  0.0000000000000D+00
211  2.1000000000000D+00  0.0000000000000D+00  0.0000000000000D+00
212  2.1100000000000D+00  0.0000000000000D+00  0.0000000000000D+00
213  2.1200000000000D+00  0.0000000000000D+00  0.0000000000000D+00
214  2.1300000000000D+00  0.0000000000000D+00  0.0000000000000D+00
215  2.1400000000000D+00  0.0000000000000D+00  0.0000000000000D+00
216  2.1500000000000D+00  0.0000000000000D+00  0.0000000000000D+00
217  2.1600000000000D+00  0.0000000000000D+00  0.0000000000000D+00
218  2.1700000000000D+00  0.0000000000000D+00  0.0000000000000D+00
219  2.1800000000000D+00  0.0000000000000D+00  0.0000000000000D+00
220  2.1900000000000D+00  0.0000000000000D+00  0.0000000000000D+00
221  2.2000000000000D+00  0.0000000000000D+00  0.0000000000000D+00
222  2.2100000000000D+00  0.0000000000000D+00  0.0000000000000D+00
223  2.2200000000000D+00  0.0000000000000D+00  0.0000000000000D+00
224  2.2300000000000D+00  0.0000000000000D+00  0.0000000000000D+00
225  2.2400000000000D+00  0.0000000000000D+00  0.0000000000000D+00
226  2.2500000000000D+00  0.0000000000000D+00  0.0000000000000D+00
227  2.2600000000000D+00  0.0000000000000D+00  0.0000000000000D+00
228  2.2700000000000D+00  0.0000000000000D+00  0.0000000000000D+00
229  2.2800000000000D+00  0.0000000000000D+00  0.0000000000000D+00
230  2.2900000000000D+00  0.0000000000000D+00  0.0000000000000D+00
231  2.3000000000000D+00  0.0000000000000D+00  0.0000000000000D+00
232  2.3100000000000D+00  0.0000000000000D+00  0.0000000000000D+00
233  2.3200000000000D+00  0.0000000000000D+00  0.0000000000000D+00
234  2.3300000000000D+00  0.0000000000000D+00  0.0000000000000D+00
235  2.3400000000000D+00  0.0000000000000D+00  0.0000000000000D+00
236  2.3500000000000D+00  0.0000000000000D+00  0.0000000000000D+00
237  2.3600000000000D+00  0.0000000000000D+00  0.0000000000000D+00
238  2.3700000000000D+00  0.0000000000000D+00  0.0000000000000D+00
239  2.3800000000000D+00  0.0000000000000D+00  0.0000000000000D+00
240  2.3900000000000D+00  0.0000000000000D+00  0.0000000000000D+00
241  2.4000000000000D+00  0.0000000000000D+00  0.0000000000000D+00
242  2.4100000000000D+00  0.0000000000000D+00  0.0000000000000D+00
243  2.4200000000000D+00  0.0000000000000D+00  0.0000000000000D+00
244  2.4300000000000D+00  0.0000000000000D+00  0.0000000000000D+00
245  2.4400000000000D+00  0.0000000000000D+00  0.0000000000000D+00
246  2.4500000000000D+00  0.0000000000000D+00  0.0000000000000D+00
247  2.4600000000000D+00  0.0000000000000D+00  0.0000000000000D+00
248  2.4700000000000D+00  0.0000000000000D+00  0.0000000000000D+00
249  2.4800000000000D+00  0.0000000000000D+00  0.0000000000000D+00
250  2.4900000000000D+00  0.0000000000000D+00  0.0000000000000D+00
251  2.5000000000000D+00  0.0000000000000D+00  0.0000000000000D+00
252  2.5100000000000D+00  0.0000000000000D+00  0.0000000000000D+00
253  2.5200000000000D+00  0.0000000000000D+00  0.0000000000000D+00
254  2.5300000000000D+00  0.0000000000000D+00  0.0000000000000D+00
255  2.5400000000000D+00  0.0000000000000D+00  0.0000000000000D+00
256  2.5500000000000D+00  0.0000000000000D+00  0.0000000000000D+00
257  2.5600000000000D+00  0.0000000000000D+00  0.0000000000000D+00
258  2.5700000000000D+00  0.0000000000000D+00  0.0000000000000D+00
259  2.5800000000000D+00  0.0000000000000D+00  0.0000000000000D+00
260  2.5900000000000D+00  0.0000000000000D+00  0.0000000000000D+00
261  2.6000000000000D+00  0.0000000000000D+00  0.0000000000000D+00
262  2.6100000000000D+00  0.0000000000000D+00  0.0000000000000D+00
263  2.6200000000000D+00  0.0000000000000D+00  0.0000000000000D+00
264  2.6300000000000D+00  0.0000000000000D+00  0.0000000000000D+00
265  2.6400000000000D+00  0.0000000000000D+00  0.0000000000000D+00
266  2.6500000000000D+00  0.0000000000000D+00  0.0000000000000D+00
267  2.6600000000000D+00  0.0000000000000D+00  0.0000000000000D+00
268  2.6700000000000D+00  0.0000000000000D+00  0.0000000000000D+00
269  2.6800000000000D+00  0.0000000000000D+00  0.0000000000000D+00
270  2.6900000000000D+00  0.0000000000000D+00  0.0000000000000D+00
271  2.7000000000000D+00  0.0000000000000D+00  0.0000000000000D+00
272  2.7100000000000D+00  0.0000000000000D+00  0.0000000000000D+00
273  2.7200000000000D+00  0.0000000000000D+00  0.0000000000000D+00
274  2.7300000000000D+00  0.0000000000000D+00  0.0000000000000D+00
275  2.7400000000000D+00  0.0000000000000D+00  0.0000000000000D+00
276  2.7500000000000D+00  0.0000000000000D+00  0.0000000000000D+00
277  2.7600000000000D+00  0.0000000000000D+00  0.0000000000000D+00
278  2.7700000000000D+00  0.0000000000000D+00  0.0000000000000D+00
279  2.7800000000000D+00  0.0000000000000D+00  0.0000000000000D+00
280  2.7900000000000D+00  0.0000000000000D+00  0.0000000000000D+00
281  2.8000000000000D+00  0.0000000000000D+00  0.0000000000000D+00
282  2.8100000000000D+00  0.0000000000000D+00  0.0000000000000D+00
283  2.8200000000000D+00  0.0000000000000D+00  0.0000000000000D+00
284  2.8300000000000D+00  0.0000000000000D+00  0.0000000000000D+00
285  2.8400000000000D+00  0.0000000000000D+00  0.0000000000000D+00
286  2.8500000000000D+00  0.0000000000000D+00  0.0000000000000D+00
287  2.8600000000000D+00  0.0000000000000D+00  0.0000000000000D+00
288  2.8700000000000D+00  0.0000000000000D+00  0.0000000000000D+00
289  2.8800000000000D+00  0.0000000000000D+00  0.0000000000000D+00
290  2.8900000000000D+00  0.0000000000000D+00  0.0000000000000D+00
291  2.9000000000000D+00  0.0000000000000D+00  0.0000000000000D+00
292  2.9100000000000D+00  0.0000000000000D+00  0.0000000000000D+00
293  2.9200000000000D+00  0.0000000000000D+00  0.0000000000000D+00
294  2.9300000000000D+00  0.0000000000000D+00  0.0000000000000D+00
295  2.9400000000000D+00  0.0000000000000D+00  0.0000000000000D+00
296  2.9500000000000D+00  0.0000000000000D+00  0.0000000000000D+00
297  2.9600000000000D+00  0.0000000000000D+00  0.0000000000000D+00
298  2.9700000000000D+00  0.0000000000000D+00  0.0000000000000D+00
299  2.9800000000000D+00  0.0000000000000D+00  0.0000000000000D+00
300  2.9900000000000D+00  0.0000000000000D+00  0.0000000000000D+00
301  3.0000000000000D+00  0.0000000000000D+00  0.0000000000000D+00
302  3.0100000000000D+00  0.0000000000000D+00  0.0000000000000D+00
303  3.0200000000000D+00  0.0000000000000D+00  0.0000000000000D+00
304  3.0300000000000D+00  0.0000000000000D+00  0.0000000000000D+00
305  3.0400000000000D+00  0.0000000000000D+00  0.0000000000000D+00
306  3.0500000000000D+00  0.0000000000000D+00  0.0000000000000D+00
307  3.0600000000000D+00  0.0000000000000D+00  0.0000000000000D+00
308  3.0700000000000D+00  0.0000000000000D+00  0.0000000000000D+00
309  3.0800000000000D+00  0.0000000000000D+00  0.0000000000000D+00
310  3.0900000000000D+00  0.0000000000000D+00  0.0000000000000D+00
311  3.1000000000000D+00  0.0000000000000D+00  0.0000000000000D+00
312  3.1100000000000D+00  0.0000000000000D+00  0.0000000000000D+00
313  3.1200000000000D+00  0.0000000000000D+00  0.0000000000000D+00
314  3.1300000000000D+00  0.0000000000000D+00  0.0000000000000D+00
315  3.1400000000000D+00  0.0000000000000D+00  0.0000000000000D+00
316  3.1500000000000D+00  0.0000000000000D+00  0.0000000000000D+00
317  3.1600000000000D+00  0.0000000000000D+00  0.0000000000000D+00
318  3.1700000000000D+00  0.0000000000000D+00  0.0000000000000D+00
319  3.1800000000000D+00  0.0000000000000D+00  0.0000000000000D+00
320  3.1900000000000D+00  0.0000000000000D+00  0.0000000000000D+00
321  3.2000000000000D+00  0.0000000000000D+00  0.0000000000000D+00
322  3.2100000000000D+00  0.0000000000000D+00  0.0000000000000D+00
323  3.2200000000000D+00  0.0000000000000D+00  0.0000000000000D+00
324  3.2300000000000D+00  0.0000000000000D+00  0.0000000000000D+00
325  3.2400000000000D+00  0.0000000000000D+00  0.0000000000000D+00
326  3.2500000000000D+00  0.0000000000000D+00  0.0000000000000D+00
327  3.2600000000000D+00  0.0000000000000D+00  0.0000000000000D+00
328  3.2700000000000D+00  0.0000000000000D+00  0.0000000000000D+00
329  3.2800000000000D+00  0.0000000000000D+00  0.0000000000000D+00
330  3.2900000000000D+00  0.0000000000000D+00  0.0000000000000D+00
331  3.3000000000000D+00  0.0000000000000D+00  0.0000000000000D+00
332  3.3100000000000D+00  0.0000000000000D+00  0.0000000000000D+00
333  3.3200000000000D+00  0.0000000000000D+00  0.0000000000000D+00
334  3.3300000000000D+00  0.0000000000000D+00  0.0000000000000D+00
335  3.3400000000000D+00  0.0000000000000D+00  0.0000000000000D+00
336  3.3500000000000D+00  0.0000000000000D+00  0.0000000000000D+00
337  3.3600000000000D+00  0.0000000000000D+00  0.0000000000000D+00
338  3.3700000000000D+00  0.0000000000000D+00  0.0000000000000D+00
339  3.3800000000000D+00  0.0000000000000D+00  0.0000000000000D+00
340  3.3900000000000D+00  0.0000000000000D+00  0.0000000000000D+00
341  3.4000000000000D+00  0.0000000000000D+00  0.0000000000000D+00
342  3.4100000000000D+00  0.0000000000000D+00  0.0000000000000D+00
343  3.4200000000000D+00  0.0000000000000D+00  0.0000000000000D+00
344  3.4300000000000D+00  0.0000000000000D+00  0.0000000000000D+00
345  3.4400000000000D+00  0.0000000000000D+00  0.0000000000000D+00
346  3.4500000000000D+00  0.0000000000000D+00  0.0000000000000D+00
347  3.4600000000000D+00  0.0000000000000D+00  0.0000000000000D+00
348  3.4700000000000D+00  0.0000000000000D+00  0.0000000000000D+00
349  3.4800000000000D+00  0.0000000000000D+00  0.0000000000000D+00
350  3.4900000000000D+00  0.0000000000000D+00  0.0000000000000D+00
351  3.5000000000000D+00  0.0000000000000D+00  0.0000000000000D+00
352  3.5100000000000D+00  0.0000000000000D+00  0.0000000000000D+00
353  3.5200000000000D+00  0.0000000000000D+00  0.0000000000000D+00
354  3.5300000000000D+00  0.0000000000000D+00  0.0000000000000D+00
355  3.5400000000000D+00  0.0000000000000D+00  0.0000000000000D+00
356  3.5500000000000D+00  0.0000000000000D+00  0.0000000000000D+00
357  3.5600000000000D+00  0.0000000000000D+00  0.0000000000000D+00
358  3.5700000000000D+00  0.0000000000000D+00  0.0000000000000D+00
359  3.5800000000000D+00  0.0000000000000D+00  0.0000000000000D+00
360  3.5900000000000D+00  0.0000000000000D+00  0.0000000000000D+00
361  3.6000000000000D+00  0.0000000000000D+00  0.0000000000000D+00
362  3.6100000000000D+00  0.0000000000000D+00  0.0000000000000D+00
363  3.6200000000000D+00  0.0000000000000D+00  0.0000000000000D+00
364  3.6300000000000D+00  0.0000000000000D+00  0.0000000000000D+00
365  3.6400000000000D+00  0.0000000000000D+00  0.0000000000000D+00
366  3.6500000000000D+00  0.0000000000000D+00  0.0000000000000D+00
367  3.6600000000000D+00  0.0000000000000D+00  0.0000000000000D+00
368  3.6700000000000D+00  0.0000000000000D+00  0.0000000000000D+00
369  3.6800000000000D+00  0.0000000000000D+00  0.0000000000000D+00
370  3.6900000000000D+00  0.0000000000000D+00  0.0000000000000D+00
371  3.7000000000000D+00  0.0000000000000D+00  0.0000000000000D+00
372  3.7100000000000D+00  0.0000000000000D+00  0.0000000000000D+00
373  3.7200000000000D+00  0.0000000000000D+00  0.0000000000000D+00
374  3.7300000000000D+00  0.0000000000000D+00  0.0000000000000D+00
375  3.7400000000000D+00  0.0000000000000D+00  0.0000000000000D+00
376  3.7500000000000D+00  0.0000000000000D+00  0.0000000000000D+00
377  3.7600000000000D+00  0.0000000000000D+00  0.0000000000000D+00
378  3.7700000000000D+00  0.0000000000000D+00  0.0000000000000D+00
379  3.7800000000000D+00  0.0000000000000D+00  0.0000000000000D+00
380  3.7900000000000D+00  0.0000000000000D+00  0.0000000000000D+00
381  3.8000000000000D+00  0.0000000000000D+00  0.0000000000000D+00
382  3.8100000000000D+00  0.0000000000000D+00  0.0000000000000D+00
383  3.8200000000000D+00  0.0000000000000D+00  0.0000000000000D+00
384  3.8300000000000D+00  0.0000000000000D+00  0.0000000000000D+00
385  3.8400000000000D+00  0.0000000000000D+00  0.0000000000000D+00
386  3.8500000000000D+00  0.0000000000000D+00  0.0000000000000D+00
387  3.8600000000000D+00  0.0000000000000D+00  0.0000000000000D+00
388  3.8700000000000D+00  0.0000000000000D+00  0.0000000000000D+00
389  3.8800000000000D+00  0.0000000000000D+00  0.0000000000000D+00
390  3.8900000000000D+00  0.0000000000000D+00  0.0000000000000D+00
391  3.9000000000000D+00  0.0000000000000D+00  0.0000000000000D+00
392  3.9100000000000D+00  0.0000000000000D+00  0.0000000000000D+00
393  3.9200000000000D+00  0.0000000000000D+00  0.0000000000000D+00
394  3.9300000000000D+00  0.0000000000000D+00  0.0000000000000D+00
395  3.9400000000000D+00  0.0000000000000D+00  0.0000000000000D+00
396  3.9500000000000D+00  0.0000000000000D+00  0.0000000000000D+00
397  3.9600000000000D+00  0.0000000000000D+00  0.0000000000000D+00
398  3.9700000000000D+00  0.0000000000000D+00  0.0000000000000D+00
399  3.9800000000000D+00  0.0000000000000D+00  0.0000000000000D+00
400  3.9900000000000D+00  0.0000000000000D+00  0.0000000000000D+00
401  4.0000000000000D+00  0.0000000000000D+00  0.0000000000000D+00
402  4.0100000000000D+00  0.0000000000000D+00  0.0000000000000D+00
403  4.0200000000000D+00  0.0000000000000D+00  0.0000000000000D+00
404  4.0300000000000D+00  0.0000000000000D+00  0.0000000000000D+00
405  4.0400000000000D+00  0.0000000000000D+00  0.0000000000000D+00
406  4.0500000000000D+00  0.0000000000000D+00  0.0000000000000D+00
407  4.0600000000000D+00  0.0000000000000D+00  0.0000000000000D+00
408  4.0700000000000D+00  0.0000000000000D+00  0.0000000000000D+00
409  4.0800000000000D+00  0.0000000000000D+00  0.0000000000000D+00
410  4.0900000000000D+00  0.0000000000000D+00  0.0000000000000D+00
411  4.1000000000000D+00  0.0000000000000D+00  0.0000000000000D+00
412  4.1100000000000D+00  0.0000000000000D+00  0.0000000000000D+00
413  4.1200000000000D+00  0.0000000000000D+00  0.0000000000000D+00
414  4.1300000000000D+00  0.0000000000000D+00  0.0000000000000D+00
415  4.1400000000000D+00  0.0000000000000D+00  0.0000000000000D+00
416  4.1500000000000D+00  0.0000000000000D+00  0.0000000000000D+00
417  4.1600000000000D+00  0.0000000000000D+00  0.0000000000000D+00
418  4.1700000000000D+00  0.0000000000000D+00  0.0000000000000D+00
419  4.1800000000000D+00  0.0000000000000D+00  0.0000000000000D+00
420  4.1900000000000D+00  0.0000000000000D+00  0.0000000000000D+00
421  4.2000000000000D+00  0.0000000000000D+00  0.0000000000000D+00
422  4.2100000000000D+00  0.0000000000000D+00  0.0000000000000D+00
423  4.2200000000000D+00  0.0000000000000D+00  0.0000000000000D+00
424  4.2300000000000D+00  0.0000000000000D+00  0.0000000000000D+00
425  4.2400000000000D+00  0.0000000000000D+00  0.0000000000000D+00
426  4.2500000000000D+00  0.0000000000000D+00  0.0000000000000D+00
427  4.2600000000000D+00  0.0000000000000D+00  0.0000000000000D+00
428  4.2700000000000D+00  0.0000000000000D+00  0.0000000000000D+00
429  4.2800000000000D+00  0.0000000000000D+00  0.0000000000000D+00
430  4.2900000000000D+00  0.0000000000000D+00  0.0000000000000D+00
431  4.3000000000000D+00  0.0000000000000D+00  0.0000000000000D+00
432  4.3100000000000D+00  0.0000000000000D+00  0.0000000000000D+00
433  4.3200000000000D+00  0.0000000000000D+00  0.0000000000000D+00
434  4.3300000000000D+00  0.0000000000000D+00  0.0000000000000D+00
435  4.3400000000000D+00  0.0000000000000D+00  0.0000000000000D+00
436  4.3500000000000D+00  0.0000000000000D+00  0.0000000000000D+00
437  4.3600000000000D+00  0.0000000000000D+00  0.0000000000000D+00
438  4.3700000000000D+00  0.0000000000000D+00  0.0000000000000D+00
439  4.3800000000000D+00  0.0000000000000D+00  0.0000000000000D+00
440  4.3900000000000D+00  0.0000000000000D+00  0.0000000000000D+00
441  4.4000000000000D+00  0.0000000000000D+00  0.0000000000000D+00
442  4.4100000000000D+00  0.0000000000000D+00  0.0000000000000D+00
443  4.4200000000000D+00  0.0000000000000D+00  0.0000000000000D+00