Ba    ONCVPSP-3.3.0  r_core=   2.15444   1.91218   2.15444
56.0000     10.0000      180429    zatom,zion,pspd
8 -116133   2     4   600     0    pspcod,pspxc,lmax,lloc,mmax,r2well
5.99000000  5.00000000  0.00000000    rchrg fchrg qchrg
2     4     4     0    nproj
3     1           extension_switch
4     4     0    nprojso
0                         6.7533081635921D-01  6.6503777293249D+00
1  0.0000000000000D+00 -1.6849708694283D-11  5.7782945095397D-12
2  1.0000000000000D-02  8.8287999947111D-04  2.6088625858523D-02
3  2.0000000000000D-02  1.7229068835876D-03  5.2180685631842D-02
4  3.0000000000000D-02  2.4774861165408D-03  7.8279526483484D-02
5  4.0000000000000D-02  3.1045391958625D-03  1.0438832246541D-01
6  5.0000000000000D-02  3.5627588589574D-03  1.3050998893817D-01
7  6.0000000000000D-02  3.8118609293719D-03  1.5664709815817D-01
8  7.0000000000000D-02  3.8128317024805D-03  1.8280179641421D-01
9  8.0000000000000D-02  3.5281697871217D-03  2.0897572308975D-01
10  9.0000000000000D-02  2.9221213407720D-03  2.3516993202026D-01
11  1.0000000000000D-01  1.9609076607858D-03  2.6138481550610D-01
12  1.1000000000000D-01  6.1294412330265D-04  2.8762003133187D-01
13  1.2000000000000D-01 -1.1509505056831D-03  3.1387443313146D-01
14  1.3000000000000D-01 -3.3573553260352D-03  3.4014600442577D-01
15  1.4000000000000D-01 -6.0300600244798D-03  3.6643179664607D-01
16  1.5000000000000D-01 -9.1898899156584D-03  3.9272787144102D-01
17  1.6000000000000D-01 -1.2854544110779D-02  4.1902924754915D-01
18  1.7000000000000D-01 -1.7038447570932D-02  4.4532985250131D-01
19  1.8000000000000D-01 -2.1752617748662D-02  4.7162247939930D-01
20  1.9000000000000D-01 -2.7004546464989D-02  4.9789874899753D-01
21  2.0000000000000D-01 -3.2798097610089D-02  5.2414907729433D-01
22  2.1000000000000D-01 -3.9133421194019D-02  5.5036264881844D-01
23  2.2000000000000D-01 -4.6006884210347D-02  5.7652739577427D-01
24  2.3000000000000D-01 -5.3411018709315D-02  6.0262998318715D-01
25  2.4000000000000D-01 -6.1334487409485D-02  6.2865580016622D-01
26  2.5000000000000D-01 -6.9762067107453D-02  6.5458895737925D-01
27  2.6000000000000D-01 -7.8674650074312D-02  6.8041229080901D-01
28  2.7000000000000D-01 -8.8049263555765D-02  7.0610737183674D-01
29  2.8000000000000D-01 -9.7859107419906D-02  7.3165452367270D-01
30  2.9000000000000D-01 -1.0807360992340D-01  7.5703284412932D-01
31  3.0000000000000D-01 -1.1865850149290D-01  7.8222023470669D-01
32  3.1000000000000D-01 -1.2957590634493D-01  8.0719343593518D-01
33  3.2000000000000D-01 -1.4078445169366D-01  8.3192806889469D-01
34  3.3000000000000D-01 -1.5223939422298D-01  8.5639868280493D-01
35  3.4000000000000D-01 -1.6389276342683D-01  8.8057880855638D-01
36  3.5000000000000D-01 -1.7569352135028D-01  9.0444101802707D-01
37  3.6000000000000D-01 -1.8758773819404D-01  9.2795698900636D-01
38  3.7000000000000D-01 -1.9951878317624D-01  9.5109757552338D-01
39  3.8000000000000D-01 -2.1142752997896D-01  9.7383288335477D-01
40  3.9000000000000D-01 -2.2325257604221D-01  9.9613235046443D-01
41  4.0000000000000D-01 -2.3493047490622D-01  1.0179648321063D+00
42  4.1000000000000D-01 -2.4639598074302D-01  1.0392986903009D+00
43  4.2000000000000D-01 -2.5758230416205D-01  1.0601018873769D+00
44  4.3000000000000D-01 -2.6842137832086D-01  1.0803420832500D+00
45  4.4000000000000D-01 -2.7884413432184D-01  1.0999867360946D+00
46  4.5000000000000D-01 -2.8878078482984D-01  1.1190032060471D+00
47  4.6000000000000D-01 -2.9816111480235D-01  1.1373588615653D+00
48  4.7000000000000D-01 -3.0691477818574D-01  1.1550211880541D+00
49  4.8000000000000D-01 -3.1497159939665D-01  1.1719578983557D+00
50  4.9000000000000D-01 -3.2226187837735D-01  1.1881370446927D+00
51  5.0000000000000D-01 -3.2871669798907D-01  1.2035271316415D+00
52  5.1000000000000D-01 -3.3426823248606D-01  1.2180972297076D+00
53  5.2000000000000D-01 -3.3885005579773D-01  1.2318170890670D+00
54  5.3000000000000D-01 -3.4239744833560D-01  1.2446572530342D+00
55  5.4000000000000D-01 -3.4484770103525D-01  1.2565891708144D+00
56  5.5000000000000D-01 -3.4614041534408D-01  1.2675853090964D+00
57  5.6000000000000D-01 -3.4621779786920D-01  1.2776192620429D+00
58  5.7000000000000D-01 -3.4502494841055D-01  1.2866658592391D+00
59  5.8000000000000D-01 -3.4251014011899D-01  1.2947012711617D+00
60  5.9000000000000D-01 -3.3862509053991D-01  1.3017031117393D+00
61  6.0000000000000D-01 -3.3332522232854D-01  1.3076505375808D+00
62  6.1000000000000D-01 -3.2656991245388D-01  1.3125243434586D+00
63  6.2000000000000D-01 -3.1832272874476D-01  1.3163070536439D+00
64  6.3000000000000D-01 -3.0855165267211D-01  1.3189830087054D+00
65  6.4000000000000D-01 -2.9722928730808D-01  1.3205384473944D+00
66  6.5000000000000D-01 -2.8433304945331D-01  1.3209615832587D+00
67  6.6000000000000D-01 -2.6984534497935D-01  1.3202426756419D+00
68  6.7000000000000D-01 -2.5375372649318D-01  1.3183740947458D+00
69  6.8000000000000D-01 -2.3605103249536D-01  1.3153503804535D+00
70  6.9000000000000D-01 -2.1673550727135D-01  1.3111682946308D+00
71  7.0000000000000D-01 -1.9581090082828D-01  1.3058268666505D+00
72  7.1000000000000D-01 -1.7328654826486D-01  1.2993274319028D+00
73  7.2000000000000D-01 -1.4917742804146D-01  1.2916736630863D+00
74  7.3000000000000D-01 -1.2350419869947D-01  1.2828715940955D+00
75  7.4000000000000D-01 -9.6293213663759D-02  1.2729296363506D+00
76  7.5000000000000D-01 -6.7576513849119D-02  1.2618585874436D+00
77  7.6000000000000D-01 -3.7391797881194D-02  1.2496716320008D+00
78  7.7000000000000D-01 -5.7823698326060D-03  1.2363843346952D+00
79  7.8000000000000D-01  2.7202935532366D-02  1.2220146253691D+00
80  7.9000000000000D-01  6.1509849918734D-02  1.2065827762574D+00
81  8.0000000000000D-01  9.7078790887220D-02  1.1901113713358D+00
82  8.1000000000000D-01  1.3384500319317D-01  1.1726252678440D+00
83  8.2000000000000D-01  1.7173872171117D-01  1.1541515500686D+00
84  8.3000000000000D-01  2.1068535548552D-01  1.1347194754987D+00
85  8.4000000000000D-01  2.5060569235591D-01  1.1143604134978D+00
86  8.5000000000000D-01  2.9141612351688D-01  1.0931077766653D+00
87  8.6000000000000D-01  3.3302888728138D-01  1.0709969450918D+00
88  8.7000000000000D-01  3.7535233123344D-01  1.0480651837373D+00
89  8.8000000000000D-01  4.1829119187094D-01  1.0243515531936D+00
90  8.9000000000000D-01  4.6174689075990D-01  9.9989681411666D-01
91  9.0000000000000D-01  5.0561784614506D-01  9.7474332564072D-01
92  9.1000000000000D-01  5.4979979888815D-01  9.4893493811156D-01
93  9.2000000000000D-01  5.9418615153735D-01  9.2251688050013D-01
94  9.3000000000000D-01  6.3866831926721D-01  8.9553564287893D-01
95  9.4000000000000D-01  6.8313609136865D-01  8.6803885436536D-01
96  9.5000000000000D-01  7.2747800191517D-01  8.4007515695509D-01
97  9.6000000000000D-01  7.7158170818312D-01  8.1169407568608D-01
98  9.7000000000000D-01  8.1533437536031D-01  7.8294588559009D-01
99  9.8000000000000D-01  8.5862306604101D-01  7.5388147590233D-01
100  9.9000000000000D-01  9.0133513297486D-01  7.2455221201231D-01
101  1.0000000000000D+00  9.4335861351251D-01  6.9500979564916D-01
102  1.0100000000000D+00  9.8458262417413D-01  6.6530612380293D-01
103  1.0200000000000D+00  1.0248977537546D+00  6.3549314688981D-01
104  1.0300000000000D+00  1.0641964533765D+00  6.0562272667330D-01
105  1.0400000000000D+00  1.1023734219033D+00  5.7574649445528D-01
106  1.0500000000000D+00  1.1393259851368D+00  5.4591571005123D-01
107  1.0600000000000D+00  1.1749544672378D+00  5.1618112206102D-01
108  1.0700000000000D+00  1.2091625528319D+00  4.8659282994336D-01
109  1.0800000000000D+00  1.2418576382962D+00  4.5720014839441D-01
110  1.0900000000000D+00  1.2729511707544D+00  4.2805147452349D-01
111  1.1000000000000D+00  1.3023589733591D+00  3.9919415830693D-01
112  1.1100000000000D+00  1.3300015554831D+00  3.7067437678991D-01
113  1.1200000000000D+00  1.3558044065003D+00  3.4253701249064D-01
114  1.1300000000000D+00  1.3796982719032D+00  3.1482553644446D-01
115  1.1400000000000D+00  1.4016194105713D+00  2.8758189630668D-01
116  1.1500000000000D+00  1.4215098320770D+00  2.6084640991322D-01
117  1.1600000000000D+00  1.4393175129909D+00  2.3465766467771D-01
118  1.1700000000000D+00  1.4549965912448D+00  2.0905242317664D-01
119  1.1800000000000D+00  1.4685075376989D+00  1.8406553524924D-01
120  1.1900000000000D+00  1.4798173041341D+00  1.5972985691739D-01
121  1.2000000000000D+00  1.4888994470072D+00  1.3607617639812D-01
122  1.2100000000000D+00  1.4957342264074D+00  1.1313314745190D-01
123  1.2200000000000D+00  1.5003086797556D+00  9.0927230279421D-02
124  1.2300000000000D+00  1.5026166698609D+00  6.9482640159574D-02
125  1.2400000000000D+00  1.5026589071129D+00  4.8821303972334D-02
126  1.2500000000000D+00  1.5004429456851D+00  2.8962824721856D-02
127  1.2600000000000D+00  1.4959831536628D+00  9.9244541637736D-03
128  1.2700000000000D+00  1.4893006572289D+00 -8.2789264243163D-03
129  1.2800000000000D+00  1.4804232591129D+00 -2.5634817312802D-02
130  1.2900000000000D+00  1.4693853315421D+00 -4.2133103223104D-02
131  1.3000000000000D+00  1.4562276841630D+00 -5.7766048126714D-02
132  1.3100000000000D+00  1.4409974074786D+00 -7.2528282026561D-02
133  1.3200000000000D+00  1.4237476923352D+00 -8.6416779802981D-02
134  1.3300000000000D+00  1.4045376262842D+00 -9.9430832297462D-02
135  1.3400000000000D+00  1.3834319676336D+00 -1.1157200980321D-01
136  1.3500000000000D+00  1.3605008980462D+00 -1.2284411814586D-01
137  1.3600000000000D+00  1.3358197548145D+00 -1.3325314762213D-01
138  1.3700000000000D+00  1.3094687438430D+00 -1.4280721503594D-01
139  1.3800000000000D+00  1.2815326345331D+00 -1.5151649912013D-01
140  1.3900000000000D+00  1.2521004379157D+00 -1.5939316968529D-01
141  1.4000000000000D+00  1.2212650692511D+00 -1.6645131079296D-01
142  1.4100000000000D+00  1.1891229966107D+00 -1.7270683835034D-01
143  1.4200000000000D+00  1.1557738768575D+00 -1.7817741249219D-01
144  1.4300000000000D+00  1.1213201805198D+00 -1.8288234513933D-01
145  1.4400000000000D+00  1.0858668071933D+00 -1.8684250317925D-01
146  1.4500000000000D+00  1.0495206929796D+00 -1.9008020766226D-01
147  1.4600000000000D+00  1.0123904116718D+00 -1.9261912948947D-01
148  1.4700000000000D+00  9.7458577128264D-01 -1.9448418202461D-01
149  1.4800000000000D+00  9.3621740761952D-01 -1.9570141110010D-01
150  1.4900000000000D+00  8.9739637654160D-01 -1.9629788288349D-01
151  1.5000000000000D+00  8.5823374662135D-01 -1.9630157007417D-01
152  1.5100000000000D+00  8.1884019380231D-01 -1.9574123690102D-01
153  1.5200000000000D+00  7.7932559977572D-01 -1.9464632339698D-01
154  1.5300000000000D+00  7.3979865562531D-01 -1.9304682941276D-01
155  1.5400000000000D+00  7.0036647235560D-01 -1.9097319883226D-01
156  1.5500000000000D+00  6.6113419988037D-01 -1.8845620445573D-01
157  1.5600000000000D+00  6.2220465584121D-01 -1.8552683396439D-01
158  1.5700000000000D+00  5.8367796593260D-01 -1.8221617745532D-01
159  1.5800000000000D+00  5.4565121673432D-01 -1.7855531687613D-01
160  1.5900000000000D+00  5.0821812288246D-01 -1.7457521788715D-01
161  1.6000000000000D+00  4.7146870912215D-01 -1.7030662436935D-01
162  1.6100000000000D+00  4.3548900920903D-01 -1.6577995614239D-01
163  1.6200000000000D+00  4.0036078181677D-01 -1.6102521001295D-01
164  1.6300000000000D+00  3.6616124533367D-01 -1.5607186470120D-01
165  1.6400000000000D+00  3.3296283151043D-01 -1.5094878971218D-01
166  1.6500000000000D+00  3.0083295960234D-01 -1.4568415864382D-01
167  1.6600000000000D+00  2.6983383080734D-01 -1.4030536695306D-01
168  1.6700000000000D+00  2.4002224438279D-01 -1.3483895460839D-01
169  1.6800000000000D+00  2.1144943505239D-01 -1.2931053359767D-01
170  1.6900000000000D+00  1.8416093284778D-01 -1.2374472066005D-01
171  1.7000000000000D+00  1.5819644474790D-01 -1.1816507514267D-01
172  1.7100000000000D+00  1.3358975908072D-01 -1.1259404230597D-01
173  1.7200000000000D+00  1.1036867171905D-01 -1.0705290188695D-01
174  1.7300000000000D+00  8.8554934944273D-02 -1.0156172222305D-01
175  1.7400000000000D+00  6.8164227578352D-02 -9.6139319626136D-02
176  1.7500000000000D+00  4.9206147276276D-02 -9.0803223317861D-02
177  1.7600000000000D+00  3.1684223046107D-02 -8.5569645466356D-02
178  1.7700000000000D+00  1.5595949016320D-02 -8.0453456675258D-02
179  1.7800000000000D+00  9.3283690633679D-04 -7.5468166290458D-02
180  1.7900000000000D+00 -1.2319511581148D-02 -7.0625907937946D-02
181  1.8000000000000D+00 -2.4181315583708D-02 -6.5937429483801D-02
182  1.8100000000000D+00 -3.4678507832658D-02 -6.1412087858093D-02
183  1.8200000000000D+00 -4.3842612652910D-02 -5.7057847872940D-02
184  1.8300000000000D+00 -5.1710608461800D-02 -5.2881285333452D-02
185  1.8400000000000D+00 -5.8324777598495D-02 -4.8887593700019D-02
186  1.8500000000000D+00 -6.3732548949067D-02 -4.5080593199552D-02
187  1.8600000000000D+00 -6.7986306398865D-02 -4.1462748120827D-02
188  1.8700000000000D+00 -7.1143242513093D-02 -3.8035174988381D-02
189  1.8800000000000D+00 -7.3265139604443D-02 -3.4797667764259D-02
190  1.8900000000000D+00 -7.4418048386463D-02 -3.1748746078870D-02
191  1.9000000000000D+00 -7.4672289948556D-02 -2.8885630775217D-02
192  1.9100000000000D+00 -7.4102787425158D-02 -2.6204156327168D-02
193  1.9200000000000D+00 -7.2787415462152D-02 -2.3699105147266D-02
194  1.9300000000000D+00 -7.0806077355377D-02 -2.1364382454311D-02
195  1.9400000000000D+00 -6.8239611644682D-02 -1.9193253220378D-02
196  1.9500000000000D+00 -6.5168288358297D-02 -1.7178668866276D-02
197  1.9600000000000D+00 -6.1670975079000D-02 -1.5313451990072D-02
198  1.9700000000000D+00 -5.7825143088058D-02 -1.3590304033736D-02
199  1.9800000000000D+00 -5.3706698582415D-02 -1.2001855351739D-02
200  1.9900000000000D+00 -4.9389315823042D-02 -1.0540813750633D-02
201  2.0000000000000D+00 -4.4944197145367D-02 -9.2000266768778D-03
202  2.0100000000000D+00 -4.0439701875506D-02 -7.9725701062735D-03
203  2.0200000000000D+00 -3.5941013075232D-02 -6.8518293910107D-03
204  2.0300000000000D+00 -3.1509824992703D-02 -5.8315754882518D-03
205  2.0400000000000D+00 -2.7204046987551D-02 -4.9060373208930D-03
206  2.0500000000000D+00 -2.3077524219404D-02 -4.0699702994776D-03
207  2.0600000000000D+00 -1.9179782013624D-02 -3.3187191783446D-03
208  2.0700000000000D+00 -1.5555789410434D-02 -2.6482764294261D-03
209  2.0800000000000D+00 -1.2246240957045D-02 -2.0554120764700D-03
210  2.0900000000000D+00 -9.2881258402284D-03 -1.5378389729780D-03
211  2.1000000000000D+00 -6.7050447767396D-03 -1.0927734716131D-03
212  2.1100000000000D+00 -4.5119878527983D-03 -7.1815853165683D-04
213  2.1200000000000D+00 -2.7510906598029D-03 -4.1675731151399D-04
214  2.1300000000000D+00 -1.4634628194131D-03 -1.9256437876039D-04
215  2.1400000000000D+00 -6.5787821376131D-04 -4.6133776971880D-05
216  2.1500000000000D+00 -2.2466381224389D-04  3.0195784408333D-05
217  2.1600000000000D+00 -3.7790109944409D-05  4.7556351066843D-05
218  2.1700000000000D+00  1.1632499749614D-05  2.8460244242924D-05
219  2.1800000000000D+00  5.9648145825331D-07  7.1384425280426D-07
220  2.1900000000000D+00 -9.3451005037868D-06 -8.6821752040094D-06
221  2.2000000000000D+00 -6.7709064672618D-06 -5.3985314008094D-06
222  2.2100000000000D+00  5.0706748011228D-07  8.6393776854465D-07
223  2.2200000000000D+00  1.2447192147194D-06  1.7858783078022D-06
224  2.2300000000000D+00  4.4135681555577D-07  5.6387190871364D-07
225  2.2400000000000D+00  2.7214495581590D-07 -1.0087838650655D-07
226  2.2500000000000D+00  3.0163229514289D-07 -1.1180872032354D-07
227  2.2600000000000D+00  0.0000000000000D+00  0.0000000000000D+00
228  2.2700000000000D+00  0.0000000000000D+00  0.0000000000000D+00
229  2.2800000000000D+00  0.0000000000000D+00  0.0000000000000D+00
230  2.2900000000000D+00  0.0000000000000D+00  0.0000000000000D+00
231  2.3000000000000D+00  0.0000000000000D+00  0.0000000000000D+00
232  2.3100000000000D+00  0.0000000000000D+00  0.0000000000000D+00
233  2.3200000000000D+00  0.0000000000000D+00  0.0000000000000D+00
234  2.3300000000000D+00  0.0000000000000D+00  0.0000000000000D+00
235  2.3400000000000D+00  0.0000000000000D+00  0.0000000000000D+00
236  2.3500000000000D+00  0.0000000000000D+00  0.0000000000000D+00
237  2.3600000000000D+00  0.0000000000000D+00  0.0000000000000D+00
238  2.3700000000000D+00  0.0000000000000D+00  0.0000000000000D+00
239  2.3800000000000D+00  0.0000000000000D+00  0.0000000000000D+00
240  2.3900000000000D+00  0.0000000000000D+00  0.0000000000000D+00
241  2.4000000000000D+00  0.0000000000000D+00  0.0000000000000D+00
242  2.4100000000000D+00  0.0000000000000D+00  0.0000000000000D+00
243  2.4200000000000D+00  0.0000000000000D+00  0.0000000000000D+00
244  2.4300000000000D+00  0.0000000000000D+00  0.0000000000000D+00
245  2.4400000000000D+00  0.0000000000000D+00  0.0000000000000D+00
246  2.4500000000000D+00  0.0000000000000D+00  0.0000000000000D+00
247  2.4600000000000D+00  0.0000000000000D+00  0.0000000000000D+00
248  2.4700000000000D+00  0.0000000000000D+00  0.0000000000000D+00
249  2.4800000000000D+00  0.0000000000000D+00  0.0000000000000D+00
250  2.4900000000000D+00  0.0000000000000D+00  0.0000000000000D+00
251  2.5000000000000D+00  0.0000000000000D+00  0.0000000000000D+00
252  2.5100000000000D+00  0.0000000000000D+00  0.0000000000000D+00
253  2.5200000000000D+00  0.0000000000000D+00  0.0000000000000D+00
254  2.5300000000000D+00  0.0000000000000D+00  0.0000000000000D+00
255  2.5400000000000D+00  0.0000000000000D+00  0.0000000000000D+00
256  2.5500000000000D+00  0.0000000000000D+00  0.0000000000000D+00
257  2.5600000000000D+00  0.0000000000000D+00  0.0000000000000D+00
258  2.5700000000000D+00  0.0000000000000D+00  0.0000000000000D+00
259  2.5800000000000D+00  0.0000000000000D+00  0.0000000000000D+00
260  2.5900000000000D+00  0.0000000000000D+00  0.0000000000000D+00
261  2.6000000000000D+00  0.0000000000000D+00  0.0000000000000D+00
262  2.6100000000000D+00  0.0000000000000D+00  0.0000000000000D+00
263  2.6200000000000D+00  0.0000000000000D+00  0.0000000000000D+00
264  2.6300000000000D+00  0.0000000000000D+00  0.0000000000000D+00
265  2.6400000000000D+00  0.0000000000000D+00  0.0000000000000D+00
266  2.6500000000000D+00  0.0000000000000D+00  0.0000000000000D+00
267  2.6600000000000D+00  0.0000000000000D+00  0.0000000000000D+00
268  2.6700000000000D+00  0.0000000000000D+00  0.0000000000000D+00
269  2.6800000000000D+00  0.0000000000000D+00  0.0000000000000D+00
270  2.6900000000000D+00  0.0000000000000D+00  0.0000000000000D+00
271  2.7000000000000D+00  0.0000000000000D+00  0.0000000000000D+00
272  2.7100000000000D+00  0.0000000000000D+00  0.0000000000000D+00
273  2.7200000000000D+00  0.0000000000000D+00  0.0000000000000D+00
274  2.7300000000000D+00  0.0000000000000D+00  0.0000000000000D+00
275  2.7400000000000D+00  0.0000000000000D+00  0.0000000000000D+00
276  2.7500000000000D+00  0.0000000000000D+00  0.0000000000000D+00
277  2.7600000000000D+00  0.0000000000000D+00  0.0000000000000D+00
278  2.7700000000000D+00  0.0000000000000D+00  0.0000000000000D+00
279  2.7800000000000D+00  0.0000000000000D+00  0.0000000000000D+00
280  2.7900000000000D+00  0.0000000000000D+00  0.0000000000000D+00
281  2.8000000000000D+00  0.0000000000000D+00  0.0000000000000D+00
282  2.8100000000000D+00  0.0000000000000D+00  0.0000000000000D+00
283  2.8200000000000D+00  0.0000000000000D+00  0.0000000000000D+00
284  2.8300000000000D+00  0.0000000000000D+00  0.0000000000000D+00
285  2.8400000000000D+00  0.0000000000000D+00  0.0000000000000D+00
286  2.8500000000000D+00  0.0000000000000D+00  0.0000000000000D+00
287  2.8600000000000D+00  0.0000000000000D+00  0.0000000000000D+00
288  2.8700000000000D+00  0.0000000000000D+00  0.0000000000000D+00
289  2.8800000000000D+00  0.0000000000000D+00  0.0000000000000D+00
290  2.8900000000000D+00  0.0000000000000D+00  0.0000000000000D+00
291  2.9000000000000D+00  0.0000000000000D+00  0.0000000000000D+00
292  2.9100000000000D+00  0.0000000000000D+00  0.0000000000000D+00
293  2.9200000000000D+00  0.0000000000000D+00  0.0000000000000D+00
294  2.9300000000000D+00  0.0000000000000D+00  0.0000000000000D+00
295  2.9400000000000D+00  0.0000000000000D+00  0.0000000000000D+00
296  2.9500000000000D+00  0.0000000000000D+00  0.0000000000000D+00
297  2.9600000000000D+00  0.0000000000000D+00  0.0000000000000D+00
298  2.9700000000000D+00  0.0000000000000D+00  0.0000000000000D+00
299  2.9800000000000D+00  0.0000000000000D+00  0.0000000000000D+00
300  2.9900000000000D+00  0.0000000000000D+00  0.0000000000000D+00
301  3.0000000000000D+00  0.0000000000000D+00  0.0000000000000D+00
302  3.0100000000000D+00  0.0000000000000D+00  0.0000000000000D+00
303  3.0200000000000D+00  0.0000000000000D+00  0.0000000000000D+00
304  3.0300000000000D+00  0.0000000000000D+00  0.0000000000000D+00
305  3.0400000000000D+00  0.0000000000000D+00  0.0000000000000D+00
306  3.0500000000000D+00  0.0000000000000D+00  0.0000000000000D+00
307  3.0600000000000D+00  0.0000000000000D+00  0.0000000000000D+00
308  3.0700000000000D+00  0.0000000000000D+00  0.0000000000000D+00
309  3.0800000000000D+00  0.0000000000000D+00  0.0000000000000D+00
310  3.0900000000000D+00  0.0000000000000D+00  0.0000000000000D+00
311  3.1000000000000D+00  0.0000000000000D+00  0.0000000000000D+00
312  3.1100000000000D+00  0.0000000000000D+00  0.0000000000000D+00
313  3.1200000000000D+00  0.0000000000000D+00  0.0000000000000D+00
314  3.1300000000000D+00  0.0000000000000D+00  0.0000000000000D+00
315  3.1400000000000D+00  0.0000000000000D+00  0.0000000000000D+00
316  3.1500000000000D+00  0.0000000000000D+00  0.0000000000000D+00
317  3.1600000000000D+00  0.0000000000000D+00  0.0000000000000D+00
318  3.1700000000000D+00  0.0000000000000D+00  0.0000000000000D+00
319  3.1800000000000D+00  0.0000000000000D+00  0.0000000000000D+00
320  3.1900000000000D+00  0.0000000000000D+00  0.0000000000000D+00
321  3.2000000000000D+00  0.0000000000000D+00  0.0000000000000D+00
322  3.2100000000000D+00  0.0000000000000D+00  0.0000000000000D+00
323  3.2200000000000D+00  0.0000000000000D+00  0.0000000000000D+00
324  3.2300000000000D+00  0.0000000000000D+00  0.0000000000000D+00
325  3.2400000000000D+00  0.0000000000000D+00  0.0000000000000D+00
326  3.2500000000000D+00  0.0000000000000D+00  0.0000000000000D+00
327  3.2600000000000D+00  0.0000000000000D+00  0.0000000000000D+00
328  3.2700000000000D+00  0.0000000000000D+00  0.0000000000000D+00
329  3.2800000000000D+00  0.0000000000000D+00  0.0000000000000D+00
330  3.2900000000000D+00  0.0000000000000D+00  0.0000000000000D+00
331  3.3000000000000D+00  0.0000000000000D+00  0.0000000000000D+00
332  3.3100000000000D+00  0.0000000000000D+00  0.0000000000000D+00
333  3.3200000000000D+00  0.0000000000000D+00  0.0000000000000D+00
334  3.3300000000000D+00  0.0000000000000D+00  0.0000000000000D+00
335  3.3400000000000D+00  0.0000000000000D+00  0.0000000000000D+00
336  3.3500000000000D+00  0.0000000000000D+00  0.0000000000000D+00
337  3.3600000000000D+00  0.0000000000000D+00  0.0000000000000D+00
338  3.3700000000000D+00  0.0000000000000D+00  0.0000000000000D+00
339  3.3800000000000D+00  0.0000000000000D+00  0.0000000000000D+00
340  3.3900000000000D+00  0.0000000000000D+00  0.0000000000000D+00
341  3.4000000000000D+00  0.0000000000000D+00  0.0000000000000D+00
342  3.4100000000000D+00  0.0000000000000D+00  0.0000000000000D+00
343  3.4200000000000D+00  0.0000000000000D+00  0.0000000000000D+00
344  3.4300000000000D+00  0.0000000000000D+00  0.0000000000000D+00
345  3.4400000000000D+00  0.0000000000000D+00  0.0000000000000D+00
346  3.4500000000000D+00  0.0000000000000D+00  0.0000000000000D+00
347  3.4600000000000D+00  0.0000000000000D+00  0.0000000000000D+00
348  3.4700000000000D+00  0.0000000000000D+00  0.0000000000000D+00
349  3.4800000000000D+00  0.0000000000000D+00  0.0000000000000D+00
350  3.4900000000000D+00  0.0000000000000D+00  0.0000000000000D+00
351  3.5000000000000D+00  0.0000000000000D+00  0.0000000000000D+00
352  3.5100000000000D+00  0.0000000000000D+00  0.0000000000000D+00
353  3.5200000000000D+00  0.0000000000000D+00  0.0000000000000D+00
354  3.5300000000000D+00  0.0000000000000D+00  0.0000000000000D+00
355  3.5400000000000D+00  0.0000000000000D+00  0.0000000000000D+00
356  3.5500000000000D+00  0.0000000000000D+00  0.0000000000000D+00
357  3.5600000000000D+00  0.0000000000000D+00  0.0000000000000D+00
358  3.5700000000000D+00  0.0000000000000D+00  0.0000000000000D+00
359  3.5800000000000D+00  0.0000000000000D+00  0.0000000000000D+00
360  3.5900000000000D+00  0.0000000000000D+00  0.0000000000000D+00
361  3.6000000000000D+00  0.0000000000000D+00  0.0000000000000D+00
362  3.6100000000000D+00  0.0000000000000D+00  0.0000000000000D+00
363  3.6200000000000D+00  0.0000000000000D+00  0.0000000000000D+00
364  3.6300000000000D+00  0.0000000000000D+00  0.0000000000000D+00
365  3.6400000000000D+00  0.0000000000000D+00  0.0000000000000D+00
366  3.6500000000000D+00  0.0000000000000D+00  0.0000000000000D+00
367  3.6600000000000D+00  0.0000000000000D+00  0.0000000000000D+00
368  3.6700000000000D+00  0.0000000000000D+00  0.0000000000000D+00
369  3.6800000000000D+00  0.0000000000000D+00  0.0000000000000D+00
370  3.6900000000000D+00  0.0000000000000D+00  0.0000000000000D+00
371  3.7000000000000D+00  0.0000000000000D+00  0.0000000000000D+00
372  3.7100000000000D+00  0.0000000000000D+00  0.0000000000000D+00
373  3.7200000000000D+00  0.0000000000000D+00  0.0000000000000D+00
374  3.7300000000000D+00  0.0000000000000D+00  0.0000000000000D+00
375  3.7400000000000D+00  0.0000000000000D+00  0.0000000000000D+00
376  3.7500000000000D+00  0.0000000000000D+00  0.0000000000000D+00
377  3.7600000000000D+00  0.0000000000000D+00  0.0000000000000D+00
378  3.7700000000000D+00  0.0000000000000D+00  0.0000000000000D+00
379  3.7800000000000D+00  0.0000000000000D+00  0.0000000000000D+00
380  3.7900000000000D+00  0.0000000000000D+00  0.0000000000000D+00
381  3.8000000000000D+00  0.0000000000000D+00  0.0000000000000D+00
382  3.8100000000000D+00  0.0000000000000D+00  0.0000000000000D+00
383  3.8200000000000D+00  0.0000000000000D+00  0.0000000000000D+00
384  3.8300000000000D+00  0.0000000000000D+00  0.0000000000000D+00
385  3.8400000000000D+00  0.0000000000000D+00  0.0000000000000D+00
386  3.8500000000000D+00  0.0000000000000D+00  0.0000000000000D+00
387  3.8600000000000D+00  0.0000000000000D+00  0.0000000000000D+00
388  3.8700000000000D+00  0.0000000000000D+00  0.0000000000000D+00
389  3.8800000000000D+00  0.0000000000000D+00  0.0000000000000D+00
390  3.8900000000000D+00  0.0000000000000D+00  0.0000000000000D+00
391  3.9000000000000D+00  0.0000000000000D+00  0.0000000000000D+00
392  3.9100000000000D+00  0.0000000000000D+00  0.0000000000000D+00
393  3.9200000000000D+00  0.0000000000000D+00  0.0000000000000D+00
394  3.9300000000000D+00  0.0000000000000D+00  0.0000000000000D+00
395  3.9400000000000D+00  0.0000000000000D+00  0.0000000000000D+00
396  3.9500000000000D+00  0.0000000000000D+00  0.0000000000000D+00
397  3.9600000000000D+00  0.0000000000000D+00  0.0000000000000D+00
398  3.9700000000000D+00  0.0000000000000D+00  0.0000000000000D+00
399  3.9800000000000D+00  0.0000000000000D+00  0.0000000000000D+00
400  3.9900000000000D+00  0.0000000000000D+00  0.0000000000000D+00
401  4.0000000000000D+00  0.0000000000000D+00  0.0000000000000D+00
402  4.0100000000000D+00  0.0000000000000D+00  0.0000000000000D+00
403  4.0200000000000D+00  0.0000000000000D+00  0.0000000000000D+00
404  4.0300000000000D+00  0.0000000000000D+00  0.0000000000000D+00
405  4.0400000000000D+00  0.0000000000000D+00  0.0000000000000D+00
406  4.0500000000000D+00  0.0000000000000D+00  0.0000000000000D+00
407  4.0600000000000D+00  0.0000000000000D+00  0.0000000000000D+00
408  4.0700000000000D+00  0.0000000000000D+00  0.0000000000000D+00
409  4.0800000000000D+00  0.0000000000000D+00  0.0000000000000D+00
410  4.0900000000000D+00  0.0000000000000D+00  0.0000000000000D+00
411  4.1000000000000D+00  0.0000000000000D+00  0.0000000000000D+00
412  4.1100000000000D+00  0.0000000000000D+00  0.0000000000000D+00
413  4.1200000000000D+00  0.0000000000000D+00  0.0000000000000D+00
414  4.1300000000000D+00  0.0000000000000D+00  0.0000000000000D+00
415  4.1400000000000D+00  0.0000000000000D+00  0.0000000000000D+00
416  4.1500000000000D+00  0.0000000000000D+00  0.0000000000000D+00
417  4.1600000000000D+00  0.0000000000000D+00  0.0000000000000D+00
418  4.1700000000000D+00  0.0000000000000D+00  0.0000000000000D+00
419  4.1800000000000D+00  0.0000000000000D+00  0.0000000000000D+00
420  4.1900000000000D+00  0.0000000000000D+00  0.0000000000000D+00
421  4.2000000000000D+00  0.0000000000000D+00  0.0000000000000D+00
422  4.2100000000000D+00  0.0000000000000D+00  0.0000000000000D+00
423  4.2200000000000D+00  0.0000000000000D+00  0.0000000000000D+00
424  4.2300000000000D+00  0.0000000000000D+00  0.0000000000000D+00
425  4.2400000000000D+00  0.0000000000000D+00  0.0000000000000D+00
426  4.2500000000000D+00  0.0000000000000D+00  0.0000000000000D+00
427  4.2600000000000D+00  0.0000000000000D+00  0.0000000000000D+00
428  4.2700000000000D+00  0.0000000000000D+00  0.0000000000000D+00
429  4.2800000000000D+00  0.0000000000000D+00  0.0000000000000D+00
430  4.2900000000000D+00  0.0000000000000D+00  0.0000000000000D+00
431  4.3000000000000D+00  0.0000000000000D+00  0.0000000000000D+00
432  4.3100000000000D+00  0.0000000000000D+00  0.0000000000000D+00
433  4.3200000000000D+00  0.0000000000000D+00  0.0000000000000D+00
434  4.3300000000000D+00  0.0000000000000D+00  0.0000000000000D+00
435  4.3400000000000D+00  0.0000000000000D+00  0.0000000000000D+00
436  4.3500000000000D+00  0.0000000000000D+00  0.0000000000000D+00
437  4.3600000000000D+00  0.0000000000000D+00  0.0000000000000D+00
438  4.3700000000000D+00  0.0000000000000D+00  0.0000000000000D+00
439  4.3800000000000D+00  0.0000000000000D+00  0.0000000000000D+00
440  4.3900000000000D+00  0.0000000000000D+00  0.0000000000000D+00
441  4.4000000000000D+00  0.0000000000000D+00  0.0000000000000D+00
442  4.4100000000000D+00  0.0000000000000D+00  0.0000000000000D+00
443  4.4200000000000D+00  0.0000000000000D+00  0.0000000000000D+00