Be    ONCVPSP-3.3.0  r_core=   1.35684   1.10780
4.0000      4.0000      180429    zatom,zion,pspd
8 -116133   1     4   400     0    pspcod,pspxc,lmax,lloc,mmax,r2well
3.99000000  0.00000000  0.00000000    rchrg fchrg qchrg
2     2     0     0    nproj
3     1           extension_switch
3     0     0    nprojso
0                        -7.9665339254219D+00 -2.6724833326924D+00
1  0.0000000000000D+00 -9.2430285647538D-10  3.0073624146532D-09
2  1.0000000000000D-02  1.0279551979469D-01 -5.3966603196765D-02
3  2.0000000000000D-02  2.0521773093542D-01 -1.0744117117989D-01
4  3.0000000000000D-02  3.0689544514384D-01 -1.5993609655282D-01
5  4.0000000000000D-02  4.0746169601594D-01 -2.1097257442632D-01
6  5.0000000000000D-02  5.0655580300707D-01 -2.6008487163823D-01
7  6.0000000000000D-02  6.0382537974327D-01 -3.0682443971272D-01
8  7.0000000000000D-02  6.9892826920437D-01 -3.5076382306782D-01
9  8.0000000000000D-02  7.9153438924906D-01 -3.9150031698763D-01
10  9.0000000000000D-02  8.8132747308045D-01 -4.2865933354238D-01
11  1.0000000000000D-01  9.6800669056659D-01 -4.6189743790732D-01
12  1.1000000000000D-01  1.0512881378137D+00 -4.9090502233094D-01
13  1.2000000000000D-01  1.1309061840178D+00 -5.1540859025759D-01
14  1.3000000000000D-01  1.2066146663683D+00 -5.3517262873386D-01
15  1.4000000000000D-01  1.2781879256206D+00 -5.5000105313350D-01
16  1.5000000000000D-01  1.3454216768616D+00 -5.5973821432583D-01
17  1.6000000000000D-01  1.4081337119420D+00 -5.6426946459235D-01
18  1.7000000000000D-01  1.4661644320015D+00 -5.6352128476567D-01
19  1.8000000000000D-01  1.5193772104546D+00 -5.5746098112743D-01
20  1.9000000000000D-01  1.5676585886906D+00 -5.4609596646137D-01
21  2.0000000000000D-01  1.6109183085589D+00 -5.2947264522248D-01
22  2.1000000000000D-01  1.6490891874238D+00 -5.0767492796669D-01
23  2.2000000000000D-01  1.6821268431649D+00 -4.8082240490799D-01
24  2.3000000000000D-01  1.7100092779447D+00 -4.4906821265870D-01
25  2.4000000000000D-01  1.7327363308428D+00 -4.1259663180222D-01
26  2.5000000000000D-01  1.7503290105579D+00 -3.7162045589212D-01
27  2.6000000000000D-01  1.7628287202827D+00 -3.2637817472607D-01
28  2.7000000000000D-01  1.7702963875580D+00 -2.7713101627786D-01
29  2.8000000000000D-01  1.7728115124017D+00 -2.2415989246811D-01
30  2.9000000000000D-01  1.7704711472892D+00 -1.6776229400790D-01
31  3.0000000000000D-01  1.7633888226212D+00 -1.0824917886869D-01
32  3.1000000000000D-01  1.7516934311761D+00 -4.5941897533583D-02
33  3.2000000000000D-01  1.7355280846968D+00  1.8830803897228D-02
34  3.3000000000000D-01  1.7150489552263D+00  8.5735664398563D-02
35  3.4000000000000D-01  1.6904241130974D+00  1.5443763747453D-01
36  3.5000000000000D-01  1.6618323726093D+00  2.2460243817788D-01
37  3.6000000000000D-01  1.6294621554125D+00  2.9589888078917D-01
38  3.7000000000000D-01  1.5935103804931D+00  3.6800098491670D-01
39  3.8000000000000D-01  1.5541813884201D+00  4.4058983273396D-01
40  3.9000000000000D-01  1.5116859062214D+00  5.1335516522692D-01
41  4.0000000000000D-01  1.4662400579059D+00  5.8599671058572D-01
42  4.1000000000000D-01  1.4180644242860D+00  6.5822524315172D-01
43  4.2000000000000D-01  1.3673831543911D+00  7.2976337652579D-01
44  4.3000000000000D-01  1.3144231294328D+00  8.0034609946634D-01
45  4.4000000000000D-01  1.2594131790059D+00  8.6972106796737D-01
46  4.5000000000000D-01  1.2025833480128D+00  9.3764867132316D-01
47  4.6000000000000D-01  1.1441642117001D+00  1.0039018939809D+00
48  4.7000000000000D-01  1.0843862352192D+00  1.0682659984850D+00
49  4.8000000000000D-01  1.0234791732794D+00  1.1305380577669D+00
50  4.9000000000000D-01  9.6167150477563D-01  1.1905263673802D+00
51  5.0000000000000D-01  8.9918989674085D-01  1.2480497699825D+00
52  5.1000000000000D-01  8.3625869162024D-01  1.3029369253983D+00
53  5.2000000000000D-01  7.7309941168433D-01  1.3550255599323D+00
54  5.3000000000000D-01  7.0993027439588D-01  1.4041617282551D+00
55  5.4000000000000D-01  6.4696571272135D-01  1.4501991201405D+00
56  5.5000000000000D-01  5.8441589472555D-01  1.4929984426309D+00
57  5.6000000000000D-01  5.2248623729845D-01  1.5324269058657D+00
58  5.7000000000000D-01  4.6137690952715D-01  1.5683578378841D+00
59  5.8000000000000D-01  4.0128232202789D-01  1.6006704502429D+00
60  5.9000000000000D-01  3.4239059947557D-01  1.6292497723556D+00
61  6.0000000000000D-01  2.8488303459464D-01  1.6539867681225D+00
62  6.1000000000000D-01  2.2893352298091D-01  1.6747786437579D+00
63  6.2000000000000D-01  1.7470797928700D-01  1.6915293508416D+00
64  6.3000000000000D-01  1.2236373650566D-01  1.7041502835649D+00
65  6.4000000000000D-01  7.2048931285866D-02  1.7125611640873D+00
66  6.5000000000000D-01  2.3901879412066D-02  1.7166911048518D+00
67  6.6000000000000D-01 -2.1949553277382D-02  1.7164798318209D+00
68  6.7000000000000D-01 -6.5388578179236D-02  1.7118790479439D+00
69  6.8000000000000D-01 -1.0631010207326D-01  1.7028539118004D+00
70  6.9000000000000D-01 -1.4462132790835D-01  1.6893846024537D+00
71  7.0000000000000D-01 -1.8024232926350D-01  1.6714679380996D+00
72  7.1000000000000D-01 -2.1310658893144D-01  1.6491190132113D+00
73  7.2000000000000D-01 -2.4316149165191D-01  1.6223728166149D+00
74  7.3000000000000D-01 -2.7036876078465D-01  1.5912857913405D+00
75  7.4000000000000D-01 -2.9470482866624D-01  1.5559372962124D+00
76  7.5000000000000D-01 -3.1616113054871D-01  1.5164309290030D+00
77  7.6000000000000D-01 -3.3474431237171D-01  1.4728956715850D+00
78  7.7000000000000D-01 -3.5047634318068D-01  1.4254868188995D+00
79  7.8000000000000D-01 -3.6339452375792D-01  1.3743866556755D+00
80  7.9000000000000D-01 -3.7355138398120D-01  1.3198048476878D+00
81  8.0000000000000D-01 -3.8101446255212D-01  1.2619785178787D+00
82  8.1000000000000D-01 -3.8586596402952D-01  1.2011719818506D+00
83  8.2000000000000D-01 -3.8820228954470D-01  1.1376761219983D+00
84  8.3000000000000D-01 -3.8813343914554D-01  1.0718073848226D+00
85  8.4000000000000D-01 -3.8578228539091D-01  1.0039063916745D+00
86  8.5000000000000D-01 -3.8128371957220D-01  9.3433615922305D-01
87  8.6000000000000D-01 -3.7478367374647D-01  8.6347993223580D-01
88  8.7000000000000D-01 -3.6643802359791D-01  7.9173863770060D-01
89  8.8000000000000D-01 -3.5641137897151D-01  7.1952797579591D-01
90  8.9000000000000D-01 -3.4487577071487D-01  6.4727516963121D-01
91  9.0000000000000D-01 -3.3200924419052D-01  5.7541540191588D-01
92  9.1000000000000D-01 -3.1799437145331D-01  5.0438797267165D-01
93  9.2000000000000D-01 -3.0301669559547D-01  4.3463221767398D-01
94  9.3000000000000D-01 -2.8726312366690D-01  3.6658323926213D-01
95  9.4000000000000D-01 -2.7092027890461D-01  3.0066747413335D-01
96  9.5000000000000D-01 -2.5417281151825D-01  2.3729807975885D-01
97  9.6000000000000D-01 -2.3720182844642D-01  1.7687080777185D-01
98  9.7000000000000D-01 -2.2018256449827D-01  1.1975647589857D-01
99  9.8000000000000D-01 -2.0327833304083D-01  6.6277192177255D-02
100  9.9000000000000D-01 -1.8663252714520D-01  1.6675487014039D-02
101  1.0000000000000D+00 -1.7036479566958D-01 -2.8897217532546D-02
102  1.0100000000000D+00 -1.5456911730257D-01 -7.0383982145153D-02
103  1.0200000000000D+00 -1.3931326092654D-01 -1.0782047819713D-01
104  1.0300000000000D+00 -1.2464032030694D-01 -1.4132523800512D-01
105  1.0400000000000D+00 -1.1057241484015D-01 -1.7108206753719D-01
106  1.0500000000000D+00 -9.7116403342174D-02 -1.9731556776183D-01
107  1.0600000000000D+00 -8.4271052830311D-02 -2.2026222572173D-01
108  1.0700000000000D+00 -7.2034724732844D-02 -2.4014085236854D-01
109  1.0800000000000D+00 -6.0412418573669D-02 -2.5712680165891D-01
110  1.0900000000000D+00 -4.9421032430089D-02 -2.7133410707869D-01
111  1.1000000000000D+00 -3.9091908053000D-02 -2.8280869464784D-01
112  1.1100000000000D+00 -2.9470225385552D-02 -2.9153378762161D-01
113  1.1200000000000D+00 -2.0611447370587D-02 -2.9744621527531D-01
114  1.1300000000000D+00 -1.2575504329250D-02 -3.0046059536175D-01
115  1.1400000000000D+00 -5.4197428622772D-03 -3.0049724888849D-01
116  1.1500000000000D+00  8.0813247705444D-04 -2.9750914417298D-01
117  1.1600000000000D+00  6.0761282467095D-03 -2.9150426843815D-01
118  1.1700000000000D+00  1.0372357270497D-02 -2.8256107571509D-01
119  1.1800000000000D+00  1.3707370945166D-02 -2.7083584485394D-01
120  1.1900000000000D+00  1.6114482766528D-02 -2.5656244931280D-01
121  1.2000000000000D+00  1.7648389836338D-02 -2.4004589517923D-01
122  1.2100000000000D+00  1.8382476339594D-02 -2.2165120728699D-01
123  1.2200000000000D+00  1.8405309010714D-02 -2.0178966418094D-01
124  1.2300000000000D+00  1.7816741106054D-02 -1.8090391383250D-01
125  1.2400000000000D+00  1.6723947062987D-02 -1.5945315279728D-01
126  1.2500000000000D+00  1.5237672955823D-02 -1.3789937147680D-01
127  1.2600000000000D+00  1.3468823466467D-02 -1.1669503963553D-01
128  1.2700000000000D+00  1.1525464016818D-02 -9.6272468296367D-02
129  1.2800000000000D+00  9.5102782952292D-03 -7.7034935346946D-02
130  1.2900000000000D+00  7.5184498453183D-03 -5.9349414328671D-02
131  1.3000000000000D+00  5.6359457214662D-03 -4.3540794192313D-02
132  1.3100000000000D+00  3.9383263898006D-03 -2.9888593968948D-02
133  1.3200000000000D+00  2.4898222153376D-03 -1.8624427982143D-02
134  1.3300000000000D+00  1.3345429892047D-03 -9.8714167949318D-03
135  1.3400000000000D+00  5.2769892179020D-04 -3.8722744862358D-03
136  1.3500000000000D+00  1.0593264246151D-04 -7.7601017469793D-04
137  1.3600000000000D+00 -2.4362341113353D-05  1.7222860217392D-04
138  1.3700000000000D+00 -1.1186710910755D-05  7.9809321468758D-05
139  1.3800000000000D+00  8.2881816897057D-06 -5.9536419048829D-05
140  1.3900000000000D+00 -1.3877792073888D-07  1.0037330273501D-06
141  1.4000000000000D+00 -1.3677138591477D-06  9.9016796733448D-06
142  1.4100000000000D+00  1.1887939530423D-08 -7.6250098966242D-08
143  1.4200000000000D+00  8.8936199529118D-09 -5.7044317885554D-08
144  1.4300000000000D+00  0.0000000000000D+00  0.0000000000000D+00
145  1.4400000000000D+00  0.0000000000000D+00  0.0000000000000D+00
146  1.4500000000000D+00  0.0000000000000D+00  0.0000000000000D+00
147  1.4600000000000D+00  0.0000000000000D+00  0.0000000000000D+00
148  1.4700000000000D+00  0.0000000000000D+00  0.0000000000000D+00
149  1.4800000000000D+00  0.0000000000000D+00  0.0000000000000D+00
150  1.4900000000000D+00  0.0000000000000D+00  0.0000000000000D+00
151  1.5000000000000D+00  0.0000000000000D+00  0.0000000000000D+00
152  1.5100000000000D+00  0.0000000000000D+00  0.0000000000000D+00
153  1.5200000000000D+00  0.0000000000000D+00  0.0000000000000D+00
154  1.5300000000000D+00  0.0000000000000D+00  0.0000000000000D+00
155  1.5400000000000D+00  0.0000000000000D+00  0.0000000000000D+00
156  1.5500000000000D+00  0.0000000000000D+00  0.0000000000000D+00
157  1.5600000000000D+00  0.0000000000000D+00  0.0000000000000D+00
158  1.5700000000000D+00  0.0000000000000D+00  0.0000000000000D+00
159  1.5800000000000D+00  0.0000000000000D+00  0.0000000000000D+00
160  1.5900000000000D+00  0.0000000000000D+00  0.0000000000000D+00
161  1.6000000000000D+00  0.0000000000000D+00  0.0000000000000D+00
162  1.6100000000000D+00  0.0000000000000D+00  0.0000000000000D+00
163  1.6200000000000D+00  0.0000000000000D+00  0.0000000000000D+00
164  1.6300000000000D+00  0.0000000000000D+00  0.0000000000000D+00
165  1.6400000000000D+00  0.0000000000000D+00  0.0000000000000D+00
166  1.6500000000000D+00  0.0000000000000D+00  0.0000000000000D+00
167  1.6600000000000D+00  0.0000000000000D+00  0.0000000000000D+00
168  1.6700000000000D+00  0.0000000000000D+00  0.0000000000000D+00
169  1.6800000000000D+00  0.0000000000000D+00  0.0000000000000D+00
170  1.6900000000000D+00  0.0000000000000D+00  0.0000000000000D+00
171  1.7000000000000D+00  0.0000000000000D+00  0.0000000000000D+00
172  1.7100000000000D+00  0.0000000000000D+00  0.0000000000000D+00
173  1.7200000000000D+00  0.0000000000000D+00  0.0000000000000D+00
174  1.7300000000000D+00  0.0000000000000D+00  0.0000000000000D+00
175  1.7400000000000D+00  0.0000000000000D+00  0.0000000000000D+00
176  1.7500000000000D+00  0.0000000000000D+00  0.0000000000000D+00
177  1.7600000000000D+00  0.0000000000000D+00  0.0000000000000D+00
178  1.7700000000000D+00  0.0000000000000D+00  0.0000000000000D+00
179  1.7800000000000D+00  0.0000000000000D+00  0.0000000000000D+00
180  1.7900000000000D+00  0.0000000000000D+00  0.0000000000000D+00
181  1.8000000000000D+00  0.0000000000000D+00  0.0000000000000D+00
182  1.8100000000000D+00  0.0000000000000D+00  0.0000000000000D+00
183  1.8200000000000D+00  0.0000000000000D+00  0.0000000000000D+00
184  1.8300000000000D+00  0.0000000000000D+00  0.0000000000000D+00
185  1.8400000000000D+00  0.0000000000000D+00  0.0000000000000D+00
186  1.8500000000000D+00  0.0000000000000D+00  0.0000000000000D+00
187  1.8600000000000D+00  0.0000000000000D+00  0.0000000000000D+00
188  1.8700000000000D+00  0.0000000000000D+00  0.0000000000000D+00
189  1.8800000000000D+00  0.0000000000000D+00  0.0000000000000D+00
190  1.8900000000000D+00  0.0000000000000D+00  0.0000000000000D+00
191  1.9000000000000D+00  0.0000000000000D+00  0.0000000000000D+00
192  1.9100000000000D+00  0.0000000000000D+00  0.0000000000000D+00
193  1.9200000000000D+00  0.0000000000000D+00  0.0000000000000D+00
194  1.9300000000000D+00  0.0000000000000D+00  0.0000000000000D+00
195  1.9400000000000D+00  0.0000000000000D+00  0.0000000000000D+00
196  1.9500000000000D+00  0.0000000000000D+00  0.0000000000000D+00
197  1.9600000000000D+00  0.0000000000000D+00  0.0000000000000D+00
198  1.9700000000000D+00  0.0000000000000D+00  0.0000000000000D+00
199  1.9800000000000D+00  0.0000000000000D+00  0.0000000000000D+00
200  1.9900000000000D+00  0.0000000000000D+00  0.0000000000000D+00
201  2.0000000000000D+00  0.0000000000000D+00  0.0000000000000D+00
202  2.0100000000000D+00  0.0000000000000D+00  0.0000000000000D+00
203  2.0200000000000D+00  0.0000000000000D+00  0.0000000000000D+00
204  2.0300000000000D+00  0.0000000000000D+00  0.0000000000000D+00
205  2.0400000000000D+00  0.0000000000000D+00  0.0000000000000D+00
206  2.0500000000000D+00  0.0000000000000D+00  0.0000000000000D+00
207  2.0600000000000D+00  0.0000000000000D+00  0.0000000000000D+00
208  2.0700000000000D+00  0.0000000000000D+00  0.0000000000000D+00
209  2.0800000000000D+00  0.0000000000000D+00  0.0000000000000D+00
210  2.0900000000000D+00  0.0000000000000D+00  0.0000000000000D+00
211  2.1000000000000D+00  0.0000000000000D+00  0.0000000000000D+00
212  2.1100000000000D+00  0.0000000000000D+00  0.0000000000000D+00
213  2.1200000000000D+00  0.0000000000000D+00  0.0000000000000D+00
214  2.1300000000000D+00  0.0000000000000D+00  0.0000000000000D+00
215  2.1400000000000D+00  0.0000000000000D+00  0.0000000000000D+00
216  2.1500000000000D+00  0.0000000000000D+00  0.0000000000000D+00
217  2.1600000000000D+00  0.0000000000000D+00  0.0000000000000D+00
218  2.1700000000000D+00  0.0000000000000D+00  0.0000000000000D+00
219  2.1800000000000D+00  0.0000000000000D+00  0.0000000000000D+00
220  2.1900000000000D+00  0.0000000000000D+00  0.0000000000000D+00
221  2.2000000000000D+00  0.0000000000000D+00  0.0000000000000D+00
222  2.2100000000000D+00  0.0000000000000D+00  0.0000000000000D+00
223  2.2200000000000D+00  0.0000000000000D+00  0.0000000000000D+00
224  2.2300000000000D+00  0.0000000000000D+00  0.0000000000000D+00
225  2.2400000000000D+00  0.0000000000000D+00  0.0000000000000D+00
226  2.2500000000000D+00  0.0000000000000D+00  0.0000000000000D+00
227  2.2600000000000D+00  0.0000000000000D+00  0.0000000000000D+00
228  2.2700000000000D+00  0.0000000000000D+00  0.0000000000000D+00
229  2.2800000000000D+00  0.0000000000000D+00  0.0000000000000D+00
230  2.2900000000000D+00  0.0000000000000D+00  0.0000000000000D+00
231  2.3000000000000D+00  0.0000000000000D+00  0.0000000000000D+00
232  2.3100000000000D+00  0.0000000000000D+00  0.0000000000000D+00
233  2.3200000000000D+00  0.0000000000000D+00  0.0000000000000D+00
234  2.3300000000000D+00  0.0000000000000D+00  0.0000000000000D+00
235  2.3400000000000D+00  0.0000000000000D+00  0.0000000000000D+00
236  2.3500000000000D+00  0.0000000000000D+00  0.0000000000000D+00
237  2.3600000000000D+00  0.0000000000000D+00  0.0000000000000D+00
238  2.3700000000000D+00  0.0000000000000D+00  0.0000000000000D+00
239  2.3800000000000D+00  0.0000000000000D+00  0.0000000000000D+00
240  2.3900000000000D+00  0.0000000000000D+00  0.0000000000000D+00
241  2.4000000000000D+00  0.0000000000000D+00  0.0000000000000D+00
242  2.4100000000000D+00  0.0000000000000D+00  0.0000000000000D+00
243  2.4200000000000D+00  0.0000000000000D+00  0.0000000000000D+00
244  2.4300000000000D+00  0.0000000000000D+00  0.0000000000000D+00
245  2.4400000000000D+00  0.0000000000000D+00  0.0000000000000D+00
246  2.4500000000000D+00  0.0000000000000D+00  0.0000000000000D+00
247  2.4600000000000D+00  0.0000000000000D+00  0.0000000000000D+00
248  2.4700000000000D+00  0.0000000000000D+00  0.0000000000000D+00
249  2.4800000000000D+00  0.0000000000000D+00  0.0000000000000D+00
250  2.4900000000000D+00  0.0000000000000D+00  0.0000000000000D+00
251  2.5000000000000D+00  0.0000000000000D+00  0.0000000000000D+00
252  2.5100000000000D+00  0.0000000000000D+00  0.0000000000000D+00
253  2.5200000000000D+00  0.0000000000000D+00  0.0000000000000D+00
254  2.5300000000000D+00  0.0000000000000D+00  0.0000000000000D+00
255  2.5400000000000D+00  0.0000000000000D+00  0.0000000000000D+00
256  2.5500000000000D+00  0.0000000000000D+00  0.0000000000000D+00
257  2.5600000000000D+00  0.0000000000000D+00  0.0000000000000D+00
258  2.5700000000000D+00  0.0000000000000D+00  0.0000000000000D+00
259  2.5800000000000D+00  0.0000000000000D+00  0.0000000000000D+00
260  2.5900000000000D+00  0.0000000000000D+00  0.0000000000000D+00
261  2.6000000000000D+00  0.0000000000000D+00  0.0000000000000D+00
262  2.6100000000000D+00  0.0000000000000D+00  0.0000000000000D+00
263  2.6200000000000D+00  0.0000000000000D+00  0.0000000000000D+00
264  2.6300000000000D+00  0.0000000000000D+00  0.0000000000000D+00
265  2.6400000000000D+00  0.0000000000000D+00  0.0000000000000D+00
266  2.6500000000000D+00  0.0000000000000D+00  0.0000000000000D+00
267  2.6600000000000D+00  0.0000000000000D+00  0.0000000000000D+00
268  2.6700000000000D+00  0.0000000000000D+00  0.0000000000000D+00
269  2.6800000000000D+00  0.0000000000000D+00  0.0000000000000D+00
270  2.6900000000000D+00  0.0000000000000D+00  0.0000000000000D+00
271  2.7000000000000D+00  0.0000000000000D+00  0.0000000000000D+00
272  2.7100000000000D+00  0.0000000000000D+00  0.0000000000000D+00
273  2.7200000000000D+00  0.0000000000000D+00  0.0000000000000D+00
274  2.7300000000000D+00  0.0000000000000D+00  0.0000000000000D+00
275  2.7400000000000D+00  0.0000000000000D+00  0.0000000000000D+00
276  2.7500000000000D+00  0.0000000000000D+00  0.0000000000000D+00
277  2.7600000000000D+00  0.0000000000000D+00  0.0000000000000D+00
278  2.7700000000000D+00  0.0000000000000D+00  0.0000000000000D+00
279  2.7800000000000D+00  0.0000000000000D+00  0.0000000000000D+00
280  2.7900000000000D+00  0.0000000000000D+00  0.0000000000000D+00
281  2.8000000000000D+00  0.0000000000000D+00  0.0000000000000D+00
282  2.8100000000000D+00  0.0000000000000D+00  0.0000000000000D+00
283  2.8200000000000D+00  0.0000000000000D+00  0.0000000000000D+00
284  2.8300000000000D+00  0.0000000000000D+00  0.0000000000000D+00
285  2.8400000000000D+00  0.0000000000000D+00  0.0000000000000D+00
286  2.8500000000000D+00  0.0000000000000D+00  0.0000000000000D+00
287  2.8600000000000D+00  0.0000000000000D+00  0.0000000000000D+00
288  2.8700000000000D+00  0.0000000000000D+00  0.0000000000000D+00
289  2.8800000000000D+00  0.0000000000000D+00  0.0000000000000D+00
290  2.8900000000000D+00  0.0000000000000D+00  0.0000000000000D+00
291  2.9000000000000D+00  0.0000000000000D+00  0.0000000000000D+00
292  2.9100000000000D+00  0.0000000000000D+00  0.0000000000000D+00
293  2.9200000000000D+00  0.0000000000000D+00  0.0000000000000D+00
294  2.9300000000000D+00  0.0000000000000D+00  0.0000000000000D+00
295  2.9400000000000D+00  0.0000000000000D+00  0.0000000000000D+00
296  2.9500000000000D+00  0.0000000000000D+00  0.0000000000000D+00
297  2.9600000000000D+00  0.0000000000000D+00  0.0000000000000D+00
298  2.9700000000000D+00  0.0000000000000D+00  0.0000000000000D+00
299  2.9800000000000D+00  0.0000000000000D+00  0.0000000000000D+00
300  2.9900000000000D+00  0.0000000000000D+00  0.0000000000000D+00
301  3.0000000000000D+00  0.0000000000000D+00  0.0000000000000D+00
302  3.0100000000000D+00  0.0000000000000D+00  0.0000000000000D+00
303  3.0200000000000D+00  0.0000000000000D+00  0.0000000000000D+00
304  3.0300000000000D+00  0.0000000000000D+00  0.0000000000000D+00
305  3.0400000000000D+00  0.0000000000000D+00  0.0000000000000D+00
306  3.0500000000000D+00  0.0000000000000D+00  0.0000000000000D+00
307  3.0600000000000D+00  0.0000000000000D+00  0.0000000000000D+00
308  3.0700000000000D+00  0.0000000000000D+00  0.0000000000000D+00
309  3.0800000000000D+00  0.0000000000000D+00  0.0000000000000D+00
310  3.0900000000000D+00  0.0000000000000D+00  0.0000000000000D+00
311  3.1000000000000D+00  0.0000000000000D+00  0.0000000000000D+00
312  3.1100000000000D+00  0.0000000000000D+00  0.0000000000000D+00
313  3.1200000000000D+00  0.0000000000000D+00  0.0000000000000D+00
314  3.1300000000000D+00  0.0000000000000D+00  0.0000000000000D+00
315  3.1400000000000D+00  0.0000000000000D+00  0.0000000000000D+00
316  3.1500000000000D+00  0.0000000000000D+00  0.0000000000000D+00
317  3.1600000000000D+00  0.0000000000000D+00  0.0000000000000D+00
318  3.1700000000000D+00  0.0000000000000D+00  0.0000000000000D+00
319  3.1800000000000D+00  0.0000000000000D+00  0.0000000000000D+00
320  3.1900000000000D+00  0.0000000000000D+00  0.0000000000000D+00
321  3.2000000000000D+00  0.0000000000000D+00  0.0000000000000D+00
322  3.2100000000000D+00  0.0000000000000D+00  0.0000000000000D+00
323  3.2200000000000D+00  0.0000000000000D+00  0.0000000000000D+00
324  3.2300000000000D+00  0.0000000000000D+00  0.0000000000000D+00
325  3.2400000000000D+00  0.0000000000000D+00  0.0000000000000D+00
326  3.2500000000000D+00  0.0000000000000D+00  0.0000000000000D+00
327  3.2600000000000D+00  0.0000000000000D+00  0.0000000000000D+00
328  3.2700000000000D+00  0.0000000000000D+00  0.0000000000000D+00
329  3.2800000000000D+00  0.0000000000000D+00  0.0000000000000D+00
330  3.2900000000000D+00  0.0000000000000D+00  0.0000000000000D+00
331  3.3000000000000D+00  0.0000000000000D+00  0.0000000000000D+00
332  3.3100000000000D+00  0.0000000000000D+00  0.0000000000000D+00
333  3.3200000000000D+00  0.0000000000000D+00  0.0000000000000D+00
334  3.3300000000000D+00  0.0000000000000D+00  0.0000000000000D+00
335  3.3400000000000D+00  0.0000000000000D+00  0.0000000000000D+00
336  3.3500000000000D+00  0.0000000000000D+00  0.0000000000000D+00
337  3.3600000000000D+00  0.0000000000000D+00  0.0000000000000D+00
338  3.3700000000000D+00  0.0000000000000D+00  0.0000000000000D+00
339  3.3800000000000D+00  0.0000000000000D+00  0.0000000000000D+00
340  3.3900000000000D+00  0.0000000000000D+00  0.0000000000000D+00
341  3.4000000000000D+00  0.0000000000000D+00  0.0000000000000D+00
342  3.4100000000000D+00  0.0000000000000D+00  0.0000000000000D+00
343  3.4200000000000D+00  0.0000000000000D+00  0.0000000000000D+00
344  3.4300000000000D+00  0.0000000000000D+00  0.0000000000000D+00
345  3.4400000000000D+00  0.0000000000000D+00  0.0000000000000D+00
346  3.4500000000000D+00  0.0000000000000D+00  0.0000000000000D+00
347  3.4600000000000D+00  0.0000000000000D+00  0.0000000000000D+00
348  3.4700000000000D+00  0.0000000000000D+00  0.0000000000000D+00
349  3.4800000000000D+00  0.0000000000000D+00  0.0000000000000D+00
350  3.4900000000000D+00  0.0000000000000D+00  0.0000000000000D+00
351  3.5000000000000D+00  0.0000000000000D+00  0.0000000000000D+00
352  3.5100000000000D+00  0.0000000000000D+00  0.0000000000000D+00
353  3.5200000000000D+00  0.0000000000000D+00  0.0000000000000D+00
354  3.5300000000000D+00  0.0000000000000D+00  0.0000000000000D+00
355  3.5400000000000D+00  0.0000000000000D+00  0.0000000000000D+00
356  3.5500000000000D+00  0.0000000000000D+00  0.0000000000000D+00
357  3.5600000000000D+00  0.0000000000000D+00  0.0000000000000D+00
358  3.5700000000000D+00  0.0000000000000D+00  0.0000000000000D+00
359  3.5800000000000D+00  0.0000000000000D+00  0.0000000000000D+00
360  3.5900000000000D+00  0.0000000000000D+00  0.0000000000000D+00
361  3.6000000000000D+00  0.0000000000000D+00  0.0000000000000D+00
362  3.6100000000000D+00  0.0000000000000D+00  0.0000000000000D+00
363  3.6200000000000D+00  0.0000000000000D+00  0.0000000000000D+00
364  3.6300000000000D+00  0.0000000000000D+00  0.0000000000000D+00
365  3.6400000000000D+00  0.0000000000000D+00  0.0000000000000D+00
366  3.6500000000000D+00  0.0000000000000D+00  0.0000000000000D+00
367  3.6600000000000D+00  0.0000000000000D+00  0.0000000000000D+00
368  3.6700000000000D+00  0.0000000000000D+00  0.0000000000000D+00
369  3.6800000000000D+00  0.0000000000000D+00  0.0000000000000D+00
370  3.6900000000000D+00  0.0000000000000D+00  0.0000000000000D+00
371  3.7000000000000D+00  0.0000000000000D+00  0.0000000000000D+00
372  3.7100000000000D+00  0.0000000000000D+00  0.0000000000000D+00
373  3.7200000000000D+00  0.0000000000000D+00  0.0000000000000D+00
374  3.7300000000000D+00  0.0000000000000D+00  0.0000000000000D+00
375  3.7400000000000D+00  0.0000000000000D+00  0.0000000000000D+00
376  3.7500000000000D+00  0.0000000000000D+00  0.0000000000000D+00
377  3.7600000000000D+00  0.0000000000000D+00  0.0000000000000D+00
378  3.7700000000000D+00  0.0000000000000D+00  0.0000000000000D+00
379  3.7800000000000D+00  0.0000000000000D+00  0.0000000000000D+00
380  3.7900000000000D+00  0.0000000000000D+00  0.0000000000000D+00
381  3.8000000000000D+00  0.0000000000000D+00  0.0000000000000D+00
382  3.8100000000000D+00  0.0000000000000D+00  0.0000000000000D+00
383  3.8200000000000D+00  0.0000000000000D+00  0.0000000000000D+00
384  3.8300000000000D+00  0.0000000000000D+00  0.0000000000000D+00
385  3.8400000000000D+00  0.0000000000000D+00  0.0000000000000D+00
386  3.8500000000000D+00  0.0000000000000D+00  0.0000000000000D+00
387  3.8600000000000D+00  0.0000000000000D+00  0.0000000000000D+00
388  3.8700000000000D+00  0.0000000000000D+00  0.0000000000000D+00
389  3.8800000000000D+00  0.0000000000000D+00  0.0000000000000D+00
390  3.8900000000000D+00  0.0000000000000D+00  0.0000000000000D+00
391  3.9000000000000D+00  0.0000000000000D+00  0.0000000000000D+00
392  3.9100000000000D+00  0.0000000000000D+00  0.0000000000000D+00
393  3.9200000000000D+00  0.0000000000000D+00  0.0000000000000D+00
394  3.9300000000000D+00  0.0000000000000D+00  0.0000000000000D+00
395  3.9400000000000D+00  0.0000000000000D+00  0.0000000000000D+00
396  3.9500000000000D+00  0.0000000000000D+00  0.0000000000000D+00
397  3.9600000000000D+00  0.0000000000000D+00  0.0000000000000D+00
398  3.9700000000000D+00  0.0000000000000D+00  0.0000000000000D+00
399  3.9800000000000D+00  0.0000000000000D+00  0.0000000000000D+00
400  3.9900000000000D+00  0.0000000000000D+00  0.0000000000000D+00
1                        -3.4316098001825D+00 -6.5179392301202D-01
1  0.0000000000000D+00  4.2923956194985D-08 -1.0495010724365D-07
2  1.0000000000000D-02  3.8014713204261D-03 -3.3328416540037D-03
3  2.0000000000000D-02  1.5157659869906D-02 -1.3244525727102D-02
4  3.0000000000000D-02  3.3924911156050D-02 -2.9476883684224D-02
5  4.0000000000000D-02  5.9867179335194D-02 -5.1607414138454D-02
6  5.0000000000000D-02  9.2660999211931D-02 -7.9060717468465D-02
7  6.0000000000000D-02  1.3190225890027D-01 -1.1112404200350D-01
8  7.0000000000000D-02  1.7711459144815D-01 -1.4696649563180D-01
9  8.0000000000000D-02  2.2775916080304D-01 -1.8566137173833D-01
10  9.0000000000000D-02  2.8324558096058D-01 -2.2621094942107D-01
11  1.0000000000000D-01  3.4294367802358D-01 -2.6757305755262D-01
12  1.1000000000000D-01  4.0619578403016D-01 -3.0868864249108D-01
13  1.2000000000000D-01  4.7232923937134D-01 -3.4850955155307D-01
14  1.3000000000000D-01  5.4066877774610D-01 -3.8602573955123D-01
15  1.4000000000000D-01  6.1054847396384D-01 -4.2029112391785D-01
16  1.5000000000000D-01  6.8132295030705D-01 -4.5044735466366D-01
17  1.6000000000000D-01  7.5237756115714D-01 -4.7574482748719D-01
18  1.7000000000000D-01  8.2313730746376D-01 -4.9556034996085D-01
19  1.8000000000000D-01  8.9307427147594D-01 -5.0941096951684D-01
20  1.9000000000000D-01  9.6171340682771D-01 -5.1696358508101D-01
21  2.0000000000000D-01  1.0286365682865D+00 -5.1804008837520D-01
22  2.1000000000000D-01  1.0934847178071D+00 -5.1261791253035D-01
23  2.2000000000000D-01  1.1559582974752D+00 -5.0082600090123D-01
24  2.3000000000000D-01  1.2158158139101D+00 -4.8293634391917D-01
25  2.4000000000000D-01  1.2728707311708D+00 -4.5935136253545D-01
26  2.5000000000000D-01  1.3269868186504D+00 -4.3058753948289D-01
27  2.6000000000000D-01  1.3780721454239D+00 -3.9725581063771D-01
28  2.7000000000000D-01  1.4260719517342D+00 -3.6003932494367D-01
29  2.8000000000000D-01  1.4709606606120D+00 -3.1966925983913D-01
30  2.9000000000000D-01  1.5127333171072D+00 -2.7689943758813D-01
31  3.0000000000000D-01  1.5513967585315D+00 -2.3248052461004D-01
32  3.1000000000000D-01  1.5869608260117D+00 -1.8713460971367D-01
33  3.2000000000000D-01  1.6194299253313D+00 -1.4153094760965D-01
34  3.3000000000000D-01  1.6487952335335D+00 -9.6263621409678D-02
35  3.4000000000000D-01  1.6750278274106D+00 -5.1831822910692D-02
36  3.5000000000000D-01  1.6980729813746D+00 -8.6233738274979D-03
37  3.6000000000000D-01  1.7178458461166D+00  3.3097983098790D-02
38  3.7000000000000D-01  1.7342286769463D+00  7.3201104342965D-02
39  3.8000000000000D-01  1.7470697329678D+00  1.1169148137803D-01
40  3.9000000000000D-01  1.7561839166762D+00  1.4871062842521D-01
41  4.0000000000000D-01  1.7613551696231D+00  1.8453079633798D-01
42  4.1000000000000D-01  1.7623405850545D+00  2.1954512607765D-01
43  4.2000000000000D-01  1.7588761444512D+00  2.5425349205391D-01