Bi    ONCVPSP-3.3.0  r_core=   2.42776   2.51622   2.10397
83.0000     15.0000      180430    zatom,zion,pspd
8 -116133   2     4   600     0    pspcod,pspxc,lmax,lloc,mmax,r2well
5.99000000  6.00000000  0.00000000    rchrg fchrg qchrg
2     4     3     0    nproj
3     1           extension_switch
4     3     0    nprojso
0                         9.5697752359158D-01  6.0114318041385D+00
1  0.0000000000000D+00 -3.7937430974466D-12  1.4054590824486D-12
2  1.0000000000000D-02  1.3352598274169D-02  1.1009767487681D-02
3  2.0000000000000D-02  2.6650295310019D-02  2.2041411560688D-02
4  3.0000000000000D-02  3.9838371405210D-02  3.3116729820515D-02
5  4.0000000000000D-02  5.2862469442400D-02  4.4257362098155D-02
6  5.0000000000000D-02  6.5668774965299D-02  5.5484712061373D-02
7  6.0000000000000D-02  7.8204194797631D-02  6.6819869412046D-02
8  7.0000000000000D-02  9.0416533723688D-02  7.8283532868614D-02
9  8.0000000000000D-02  1.0225466875299D-01  8.9895934127296D-02
10  9.0000000000000D-02  1.1366872049618D-01  1.0167676299398D-01
11  1.0000000000000D-01  1.2461022118511D-01  1.1364509387656D-01
12  1.1000000000000D-01  1.3503227887651D-01  1.2581931382515D-01
13  1.2000000000000D-01  1.4488973738625D-01  1.3821705230453D-01
14  1.3000000000000D-01  1.5413933150999D-01  1.5085511288038D-01
15  1.4000000000000D-01  1.6273983709483D-01  1.6374940699706D-01
16  1.5000000000000D-01  1.7065221553790D-01  1.7691489002083D-01
17  1.6000000000000D-01  1.7783975229824D-01  1.9036549971840D-01
18  1.7000000000000D-01  1.8426818902153D-01  2.0411409733573D-01
19  1.8000000000000D-01  1.8990584888978D-01  2.1817241143746D-01
20  1.9000000000000D-01  1.9472375482285D-01  2.3255098466171D-01
21  2.0000000000000D-01  1.9869574017352D-01  2.4725912353943D-01
22  2.1000000000000D-01  2.0179855157401D-01  2.6230485152159D-01
23  2.2000000000000D-01  2.0401194360898D-01  2.7769486535082D-01
24  2.3000000000000D-01  2.0531876500787D-01  2.9343449490778D-01
25  2.4000000000000D-01  2.0570503606830D-01  3.0952766665494D-01
26  2.5000000000000D-01  2.0516001704215D-01  3.2597687079367D-01
27  2.6000000000000D-01  2.0367626723634D-01  3.4278313224211D-01
28  2.7000000000000D-01  2.0124969460196D-01  3.5994598553367D-01
29  2.8000000000000D-01  1.9787959560777D-01  3.7746345372743D-01
30  2.9000000000000D-01  1.9356868521689D-01  3.9533203141288D-01
31  3.0000000000000D-01  1.8832311680990D-01  4.1354667188250D-01
32  3.1000000000000D-01  1.8215249192173D-01  4.3210077853634D-01
33  3.2000000000000D-01  1.7506985968533D-01  4.5098620057299D-01
34  3.3000000000000D-01  1.6709170590108D-01  4.7019323301165D-01
35  3.4000000000000D-01  1.5823793167754D-01  4.8971062107953D-01
36  3.5000000000000D-01  1.4853182161621D-01  5.0952556898877D-01
37  3.6000000000000D-01  1.3800000154108D-01  5.2962375311608D-01
38  3.7000000000000D-01  1.2667238580141D-01  5.4998933958778D-01
39  3.8000000000000D-01  1.1458211420540D-01  5.7060500626161D-01
40  3.9000000000000D-01  1.0176547867080D-01  5.9145196908577D-01
41  4.0000000000000D-01  8.8261839708265D-02  6.1251001280410D-01
42  4.1000000000000D-01  7.4113532882178D-02  6.3375752596505D-01
43  4.2000000000000D-01  5.9365765423840D-02  6.5517154018041D-01
44  4.3000000000000D-01  4.4066503200959D-02  6.7672777356833D-01
45  4.4000000000000D-01  2.8266348277405D-02  6.9840067830349D-01
46  4.5000000000000D-01  1.2018407326410D-02  7.2016349218564D-01
47  4.6000000000000D-01 -4.6218488100752D-03  7.4198829412618D-01
48  4.7000000000000D-01 -2.1596734094449D-02  7.6384606344096D-01
49  4.8000000000000D-01 -3.8846504448673D-02  7.8570674282604D-01
50  4.9000000000000D-01 -5.6309522713401D-02  8.0753930488180D-01
51  5.0000000000000D-01 -7.3922431005181D-02  8.2931182203986D-01
52  5.1000000000000D-01 -9.1620330039002D-02  8.5099153973617D-01
53  5.2000000000000D-01 -1.0933696495743D-01  8.7254495266301D-01
54  5.3000000000000D-01 -1.2700491718231D-01  8.9393788392238D-01
55  5.4000000000000D-01 -1.4455580178086D-01  9.1513556689296D-01
56  5.5000000000000D-01 -1.6192046981471D-01  9.3610272961338D-01
57  5.6000000000000D-01 -1.7902921511855D-01  9.5680368147488D-01
58  5.7000000000000D-01 -1.9581198493445D-01  9.7720240200794D-01
59  5.8000000000000D-01 -2.1219859380835D-01  9.9726263153859D-01
60  5.9000000000000D-01 -2.2811894013765D-01  1.0169479634826D+00
61  6.0000000000000D-01 -2.4350322474240D-01  1.0362219380382D+00
62  6.1000000000000D-01 -2.5828217081799D-01  1.0550481370306D+00
63  6.2000000000000D-01 -2.7238724461444D-01  1.0733902796569D+00
64  6.3000000000000D-01 -2.8575087617631D-01  1.0912123188726D+00
65  6.4000000000000D-01 -2.9830667946801D-01  1.1084785381570D+00
66  6.5000000000000D-01 -3.0998967120236D-01  1.1251536483908D+00
67  6.6000000000000D-01 -3.2073648768488D-01  1.1412028845749D+00
68  6.7000000000000D-01 -3.3048559898353D-01  1.1565921021177D+00
69  6.8000000000000D-01 -3.3917751973263D-01  1.1712878724153D+00
70  6.9000000000000D-01 -3.4675501588105D-01  1.1852575774489D+00
71  7.0000000000000D-01 -3.5316330669865D-01  1.1984695031216D+00
72  7.1000000000000D-01 -3.5835026136052D-01  1.2108929310610D+00
73  7.2000000000000D-01 -3.6226658943713D-01  1.2224982286100D+00
74  7.3000000000000D-01 -3.6486602462914D-01  1.2332569367358D+00
75  7.4000000000000D-01 -3.6610550109800D-01  1.2431418555870D+00
76  7.5000000000000D-01 -3.6594532175975D-01  1.2521271274333D+00
77  7.6000000000000D-01 -3.6434931792605D-01  1.2601883167281D+00
78  7.7000000000000D-01 -3.6128499969726D-01  1.2673024870390D+00
79  7.8000000000000D-01 -3.5672369653418D-01  1.2734482745994D+00
80  7.9000000000000D-01 -3.5064068745968D-01  1.2786059582387D+00
81  8.0000000000000D-01 -3.4301532036858D-01  1.2827575254618D+00
82  8.1000000000000D-01 -3.3383111995247D-01  1.2858867344529D+00
83  8.2000000000000D-01 -3.2307588377774D-01  1.2879791717929D+00
84  8.3000000000000D-01 -3.1074176608782D-01  1.2890223056872D+00
85  8.4000000000000D-01 -2.9682534893590D-01  1.2890055345137D+00
86  8.5000000000000D-01 -2.8132770029089D-01  1.2879202305149D+00
87  8.6000000000000D-01 -2.6425441879852D-01  1.2857597784675D+00
88  8.7000000000000D-01 -2.4561566491923D-01  1.2825196091799D+00
89  8.8000000000000D-01 -2.2542617820668D-01  1.2781972276809D+00
90  8.9000000000000D-01 -2.0370528053361D-01  1.2727922359782D+00
91  9.0000000000000D-01 -1.8047686511638D-01  1.2663063502815D+00
92  9.1000000000000D-01 -1.5576937123501D-01  1.2587434125997D+00
93  9.2000000000000D-01 -1.2961574459208D-01  1.2501093966409D+00
94  9.3000000000000D-01 -1.0205338330124D-01  1.2404124079576D+00
95  9.4000000000000D-01 -7.3124069543897D-02  1.2296626783003D+00
96  9.5000000000000D-01 -4.2873886981351D-02  1.2178725541575D+00
97  9.6000000000000D-01 -1.1353124058189D-02  1.2050564794799D+00
98  9.7000000000000D-01  2.1383836618113D-02  1.1912309726040D+00
99  9.8000000000000D-01  5.5278642587860D-02  1.1764145974092D+00
100  9.9000000000000D-01  9.0269109257451D-02  1.1606279287594D+00
101  1.0000000000000D+00  1.2628937069486D-01  1.1438935123004D+00
102  1.0100000000000D+00  1.6327004312470D-01  1.1262358187003D+00
103  1.0200000000000D+00  2.0113840069692D-01  1.1076811924416D+00
104  1.0300000000000D+00  2.3981856305891D-01  1.0882577952870D+00
105  1.0400000000000D+00  2.7923169421524D-01  1.0679955445628D+00
106  1.0500000000000D+00  3.1929621211585D-01  1.0469260464199D+00
107  1.0600000000000D+00  3.5992800837192D-01  1.0250825242463D+00
108  1.0700000000000D+00  4.0104067745945D-01  1.0024997424265D+00
109  1.0800000000000D+00  4.4254575472987D-01  9.7921392565596D-01
110  1.0900000000000D+00  4.8435296251310D-01  9.5526267403292D-01
111  1.1000000000000D+00  5.2637046356247D-01  9.3068487416980D-01
112  1.1100000000000D+00  5.6850512106180D-01  9.0552060657367D-01
113  1.1200000000000D+00  6.1066276438344D-01  8.7981104956336D-01
114  1.1300000000000D+00  6.5274845975989D-01  8.5359838000127D-01
115  1.1400000000000D+00  6.9466678500805D-01  8.2692567112997D-01
116  1.1500000000000D+00  7.3632210742523D-01  7.9983678781361D-01
117  1.1600000000000D+00  7.7761886395734D-01  7.7237627949390D-01
118  1.1700000000000D+00  8.1846184272348D-01  7.4458927118007D-01
119  1.1800000000000D+00  8.5875646497164D-01  7.1652135279887D-01
120  1.1900000000000D+00  8.9840906653190D-01  6.8821846723643D-01
121  1.2000000000000D+00  9.3732717782609D-01  6.5972679741080D-01
122  1.2100000000000D+00  9.7541980149312D-01  6.3109265271734D-01
123  1.2200000000000D+00  1.0125976866927D+00  6.0236235519179D-01
124  1.2300000000000D+00  1.0487735991491D+00  5.7358212573832D-01
125  1.2400000000000D+00  1.0838625860122D+00  5.4479797077091D-01
126  1.2500000000000D+00  1.1177822346249D+00  5.1605556961374D-01
127  1.2600000000000D+00  1.1504529242920D+00  4.8740016300815D-01
128  1.2700000000000D+00  1.1817980701739D+00  4.5887644306783D-01
129  1.2800000000000D+00  1.2117443584599D+00  4.3052844501842D-01
130  1.2900000000000D+00  1.2402219719674D+00  4.0239944105897D-01
131  1.3000000000000D+00  1.2671648053798D+00  3.7453183666921D-01
132  1.3100000000000D+00  1.2925106693633D+00  3.4696706967744D-01
133  1.3200000000000D+00  1.3162014827925D+00  3.1974551240872D-01
134  1.3300000000000D+00  1.3381834524200D+00  2.9290637720455D-01
135  1.3400000000000D+00  1.3584072393304D+00  2.6648762560284D-01
136  1.3500000000000D+00  1.3768281115314D+00  2.4052588146580D-01
137  1.3600000000000D+00  1.3934060821633D+00  2.1505634830424D-01
138  1.3700000000000D+00  1.4081060327762D+00  1.9011273105802D-01
139  1.3800000000000D+00  1.4208978211908D+00  1.6572716257158D-01
140  1.3900000000000D+00  1.4317563735961D+00  1.4193013496257D-01
141  1.4000000000000D+00  1.4406617604162D+00  1.1875043611821D-01
142  1.4100000000000D+00  1.4475992557313D+00  9.6215091476820D-02
143  1.4200000000000D+00  1.4525593799720D+00  7.4349311270454D-02
144  1.4300000000000D+00  1.4555379256420D+00  5.3176443395805D-02
145  1.4400000000000D+00  1.4565359660670D+00  3.2717932000510D-02
146  1.4500000000000D+00  1.4555598469246D+00  1.2993281951329D-02
147  1.4600000000000D+00  1.4526211607016D+00 -5.9799707762433D-03
148  1.4700000000000D+00  1.4477367040375D+00 -2.4186282688706D-02
149  1.4800000000000D+00  1.4409284180538D+00 -4.1612120290140D-02
150  1.4900000000000D+00  1.4322233119531D+00 -5.8245971534655D-02
151  1.5000000000000D+00  1.4216533699145D+00 -7.4078351134507D-02
152  1.5100000000000D+00  1.4092554418292D+00 -8.9101799826622D-02
153  1.5200000000000D+00  1.3950711179647D+00 -1.0331087753743D-01
154  1.5300000000000D+00  1.3791465881795D+00 -1.1670215057661D-01
155  1.5400000000000D+00  1.3615324860044D+00 -1.2927417288091D-01
156  1.5500000000000D+00  1.3422837181610D+00 -1.4102746142058D-01
157  1.5600000000000D+00  1.3214592801164D+00 -1.5196446589360D-01
158  1.5700000000000D+00  1.2991220581752D+00 -1.6208953279316D-01
159  1.5800000000000D+00  1.2753386189648D+00 -1.7140886407387D-01
160  1.5900000000000D+00  1.2501789867670D+00 -1.7993047047974D-01
161  1.6000000000000D+00  1.2237164097608D+00 -1.8766411984621D-01
162  1.6100000000000D+00  1.1960271156238D+00 -1.9462128043220D-01
163  1.6200000000000D+00  1.1671900576736D+00 -2.0081505964811D-01
164  1.6300000000000D+00  1.1372866520851D+00 -2.0626013826653D-01
165  1.6400000000000D+00  1.1064005073696D+00 -2.1097270049225D-01
166  1.6500000000000D+00  1.0746171467882D+00 -2.1497036003079D-01
167  1.6600000000000D+00  1.0420237248571D+00 -2.1827208252929D-01
168  1.6700000000000D+00  1.0087087387349D+00 -2.2089810457710D-01
169  1.6800000000000D+00  9.7476173561906D-01 -2.2286984963745D-01
170  1.6900000000000D+00  9.4027301703271D-01 -2.2420984113587D-01
171  1.7000000000000D+00  9.0533334109255D-01 -2.2494161307465D-01
172  1.7100000000000D+00  8.7003362371148D-01 -2.2508961842899D-01
173  1.7200000000000D+00  8.3446463977039D-01 -2.2467913568946D-01
174  1.7300000000000D+00  7.9871672528360D-01 -2.2373617383182D-01
175  1.7400000000000D+00  7.6287948149676D-01 -2.2228737606632D-01
176  1.7500000000000D+00  7.2704148203322D-01 -2.2035992267457D-01
177  1.7600000000000D+00  6.9128998386710D-01 -2.1798143325805D-01
178  1.7700000000000D+00  6.5571064338047D-01 -2.1517986874403D-01
179  1.7800000000000D+00  6.2038723802893D-01 -2.1198343341999D-01
180  1.7900000000000D+00  5.8540139508294D-01 -2.0842047739824D-01
181  1.8000000000000D+00  5.5083232763684D-01 -2.0451939970305D-01
182  1.8100000000000D+00  5.1675657955775D-01 -2.0030855244386D-01
183  1.8200000000000D+00  4.8324777930774D-01 -1.9581614619402D-01
184  1.8300000000000D+00  4.5037640431554D-01 -1.9107015706106D-01
185  1.8400000000000D+00  4.1820955580652D-01 -1.8609823554360D-01
186  1.8500000000000D+00  3.8681074550483D-01 -1.8092761761804D-01
187  1.8600000000000D+00  3.5623969433831D-01 -1.7558503818984D-01
188  1.8700000000000D+00  3.2655214401280D-01 -1.7009664722905D-01
189  1.8800000000000D+00  2.9779968209857D-01 -1.6448792884798D-01
190  1.8900000000000D+00  2.7002958062513D-01 -1.5878362341938D-01
191  1.9000000000000D+00  2.4328464964689D-01 -1.5300765321128D-01
192  1.9100000000000D+00  2.1760310463618D-01 -1.4718305132594D-01
193  1.9200000000000D+00  1.9301845000710D-01 -1.4133189465834D-01
194  1.9300000000000D+00  1.6955937698339D-01 -1.3547524047166D-01
195  1.9400000000000D+00  1.4724967546219D-01 -1.2963306668815D-01
196  1.9500000000000D+00  1.2610817126228D-01 -1.2382421860047D-01
197  1.9600000000000D+00  1.0614866391109D-01 -1.1806635622669D-01
198  1.9700000000000D+00  8.7379866447987D-02 -1.1237590282854D-01
199  1.9800000000000D+00  6.9805496693004D-02 -1.0676803102538D-01
200  1.9900000000000D+00  5.3424167143949D-02 -1.0125659837713D-01
201  2.0000000000000D+00  3.8229136700025D-02 -9.5854057352457D-02
202  2.0100000000000D+00  2.4208786759394D-02 -9.0571532148106D-02
203  2.0200000000000D+00  1.1347036281668D-02 -8.5418881141009D-02
204  2.0300000000000D+00 -3.7624084825478D-04 -8.0404767479352D-02
205  2.0400000000000D+00 -1.0984852443664D-02 -7.5536732061500D-02
206  2.0500000000000D+00 -2.0505468526930D-02 -7.0821370063894D-02
207  2.0600000000000D+00 -2.8967798287304D-02 -6.6264278012526D-02
208  2.0700000000000D+00 -3.6404451426037D-02 -6.1870080102545D-02
209  2.0800000000000D+00 -4.2850764105246D-02 -5.7642460700866D-02
210  2.0900000000000D+00 -4.8344553345988D-02 -5.3584212855118D-02
211  2.1000000000000D+00 -5.2925972357512D-02 -4.9697266353737D-02
212  2.1100000000000D+00 -5.6637293074984D-02 -4.5982732688549D-02
213  2.1200000000000D+00 -5.9522708029035D-02 -4.2440946524167D-02
214  2.1300000000000D+00 -6.1628121938199D-02 -3.9071510308322D-02
215  2.1400000000000D+00 -6.3000938831305D-02 -3.5873340659990D-02
216  2.1500000000000D+00 -6.3689845802165D-02 -3.2844716201329D-02
217  2.1600000000000D+00 -6.3744593735799D-02 -2.9983326788083D-02
218  2.1700000000000D+00 -6.3215776252158D-02 -2.7286323733065D-02
219  2.1800000000000D+00 -6.2154607551247D-02 -2.4750370861617D-02
220  2.1900000000000D+00 -6.0612700062581D-02 -2.2371696140251D-02
221  2.2000000000000D+00 -5.8641842512419D-02 -2.0146143676282D-02
222  2.2100000000000D+00 -5.6293779790857D-02 -1.8069225736180D-02
223  2.2200000000000D+00 -5.3619994834939D-02 -1.6136174683398D-02
224  2.2300000000000D+00 -5.0671493582703D-02 -1.4341994546357D-02
225  2.2400000000000D+00 -4.7498594326650D-02 -1.2681511846988D-02
226  2.2500000000000D+00 -4.4150721023695D-02 -1.1149425789963D-02
227  2.2600000000000D+00 -4.0676202729411D-02 -9.7403572124052D-03
228  2.2700000000000D+00 -3.7122079380891D-02 -8.4488962190688D-03
229  2.2800000000000D+00 -3.3533913408354D-02 -7.2696486413132D-03
230  2.2900000000000D+00 -2.9955610738209D-02 -6.1972803147898D-03
231  2.3000000000000D+00 -2.6429248968222D-02 -5.2265597927424D-03
232  2.3100000000000D+00 -2.2994914356716D-02 -4.3523990278593D-03
233  2.3200000000000D+00 -1.9690549814636D-02 -3.5698913944644D-03
234  2.3300000000000D+00 -1.6551811341782D-02 -2.8743477777894D-03
235  2.3400000000000D+00 -1.3611936038690D-02 -2.2613298309387D-03
236  2.3500000000000D+00 -1.0904384860114D-02 -1.7268653865567D-03
237  2.3600000000000D+00 -8.4526843646767D-03 -1.2668034354983D-03
238  2.3700000000000D+00 -6.2794138782454D-03 -8.7744713838664D-04
239  2.3800000000000D+00 -4.3939673774098D-03 -5.5548764025672D-04
240  2.3900000000000D+00 -2.8513640253887D-03 -2.9912107819291D-04
241  2.4000000000000D+00 -1.6848448398906D-03 -1.0626256025663D-04
242  2.4100000000000D+00 -9.1402898648255D-04  2.6944334059440D-05
243  2.4200000000000D+00 -4.4932598659457D-04  9.9678343279231D-05
244  2.4300000000000D+00 -1.9884027375541D-04  1.1507702892195D-04
245  2.4400000000000D+00 -6.6946043210552D-05  8.1690136972260D-05
246  2.4500000000000D+00 -1.3004978396964D-05  3.1440875632245D-05
247  2.4600000000000D+00  1.8765091389219D-06 -7.1640937025885D-06
248  2.4700000000000D+00  1.5503127625298D-06 -1.6159956832770D-05
249  2.4800000000000D+00 -1.6002169874899D-07 -8.5901518875564D-06
250  2.4900000000000D+00 -7.6116703393653D-07  1.5517649157282D-06
251  2.5000000000000D+00 -1.4848270505766D-06  3.4928682074710D-06
252  2.5100000000000D+00 -7.2672961735446D-07  1.9541128001889D-06
253  2.5200000000000D+00  3.0358621907882D-07 -1.4610642550464D-07
254  2.5300000000000D+00  6.9137325217858D-07 -3.3273603417126D-07
255  2.5400000000000D+00  4.0585372184443D-07 -1.9532453336115D-07
256  2.5500000000000D+00  0.0000000000000D+00  0.0000000000000D+00
257  2.5600000000000D+00  0.0000000000000D+00  0.0000000000000D+00
258  2.5700000000000D+00  0.0000000000000D+00  0.0000000000000D+00
259  2.5800000000000D+00  0.0000000000000D+00  0.0000000000000D+00
260  2.5900000000000D+00  0.0000000000000D+00  0.0000000000000D+00
261  2.6000000000000D+00  0.0000000000000D+00  0.0000000000000D+00
262  2.6100000000000D+00  0.0000000000000D+00  0.0000000000000D+00
263  2.6200000000000D+00  0.0000000000000D+00  0.0000000000000D+00
264  2.6300000000000D+00  0.0000000000000D+00  0.0000000000000D+00
265  2.6400000000000D+00  0.0000000000000D+00  0.0000000000000D+00
266  2.6500000000000D+00  0.0000000000000D+00  0.0000000000000D+00
267  2.6600000000000D+00  0.0000000000000D+00  0.0000000000000D+00
268  2.6700000000000D+00  0.0000000000000D+00  0.0000000000000D+00
269  2.6800000000000D+00  0.0000000000000D+00  0.0000000000000D+00
270  2.6900000000000D+00  0.0000000000000D+00  0.0000000000000D+00
271  2.7000000000000D+00  0.0000000000000D+00  0.0000000000000D+00
272  2.7100000000000D+00  0.0000000000000D+00  0.0000000000000D+00
273  2.7200000000000D+00  0.0000000000000D+00  0.0000000000000D+00
274  2.7300000000000D+00  0.0000000000000D+00  0.0000000000000D+00
275  2.7400000000000D+00  0.0000000000000D+00  0.0000000000000D+00
276  2.7500000000000D+00  0.0000000000000D+00  0.0000000000000D+00
277  2.7600000000000D+00  0.0000000000000D+00  0.0000000000000D+00
278  2.7700000000000D+00  0.0000000000000D+00  0.0000000000000D+00
279  2.7800000000000D+00  0.0000000000000D+00  0.0000000000000D+00
280  2.7900000000000D+00  0.0000000000000D+00  0.0000000000000D+00
281  2.8000000000000D+00  0.0000000000000D+00  0.0000000000000D+00
282  2.8100000000000D+00  0.0000000000000D+00  0.0000000000000D+00
283  2.8200000000000D+00  0.0000000000000D+00  0.0000000000000D+00
284  2.8300000000000D+00  0.0000000000000D+00  0.0000000000000D+00
285  2.8400000000000D+00  0.0000000000000D+00  0.0000000000000D+00
286  2.8500000000000D+00  0.0000000000000D+00  0.0000000000000D+00
287  2.8600000000000D+00  0.0000000000000D+00  0.0000000000000D+00
288  2.8700000000000D+00  0.0000000000000D+00  0.0000000000000D+00
289  2.8800000000000D+00  0.0000000000000D+00  0.0000000000000D+00
290  2.8900000000000D+00  0.0000000000000D+00  0.0000000000000D+00
291  2.9000000000000D+00  0.0000000000000D+00  0.0000000000000D+00
292  2.9100000000000D+00  0.0000000000000D+00  0.0000000000000D+00
293  2.9200000000000D+00  0.0000000000000D+00  0.0000000000000D+00
294  2.9300000000000D+00  0.0000000000000D+00  0.0000000000000D+00
295  2.9400000000000D+00  0.0000000000000D+00  0.0000000000000D+00
296  2.9500000000000D+00  0.0000000000000D+00  0.0000000000000D+00
297  2.9600000000000D+00  0.0000000000000D+00  0.0000000000000D+00
298  2.9700000000000D+00  0.0000000000000D+00  0.0000000000000D+00
299  2.9800000000000D+00  0.0000000000000D+00  0.0000000000000D+00
300  2.9900000000000D+00  0.0000000000000D+00  0.0000000000000D+00
301  3.0000000000000D+00  0.0000000000000D+00  0.0000000000000D+00
302  3.0100000000000D+00  0.0000000000000D+00  0.0000000000000D+00
303  3.0200000000000D+00  0.0000000000000D+00  0.0000000000000D+00
304  3.0300000000000D+00  0.0000000000000D+00  0.0000000000000D+00
305  3.0400000000000D+00  0.0000000000000D+00  0.0000000000000D+00
306  3.0500000000000D+00  0.0000000000000D+00  0.0000000000000D+00
307  3.0600000000000D+00  0.0000000000000D+00  0.0000000000000D+00
308  3.0700000000000D+00  0.0000000000000D+00  0.0000000000000D+00
309  3.0800000000000D+00  0.0000000000000D+00  0.0000000000000D+00
310  3.0900000000000D+00  0.0000000000000D+00  0.0000000000000D+00
311  3.1000000000000D+00  0.0000000000000D+00  0.0000000000000D+00
312  3.1100000000000D+00  0.0000000000000D+00  0.0000000000000D+00
313  3.1200000000000D+00  0.0000000000000D+00  0.0000000000000D+00
314  3.1300000000000D+00  0.0000000000000D+00  0.0000000000000D+00
315  3.1400000000000D+00  0.0000000000000D+00  0.0000000000000D+00
316  3.1500000000000D+00  0.0000000000000D+00  0.0000000000000D+00
317  3.1600000000000D+00  0.0000000000000D+00  0.0000000000000D+00
318  3.1700000000000D+00  0.0000000000000D+00  0.0000000000000D+00
319  3.1800000000000D+00  0.0000000000000D+00  0.0000000000000D+00
320  3.1900000000000D+00  0.0000000000000D+00  0.0000000000000D+00
321  3.2000000000000D+00  0.0000000000000D+00  0.0000000000000D+00
322  3.2100000000000D+00  0.0000000000000D+00  0.0000000000000D+00
323  3.2200000000000D+00  0.0000000000000D+00  0.0000000000000D+00
324  3.2300000000000D+00  0.0000000000000D+00  0.0000000000000D+00
325  3.2400000000000D+00  0.0000000000000D+00  0.0000000000000D+00
326  3.2500000000000D+00  0.0000000000000D+00  0.0000000000000D+00
327  3.2600000000000D+00  0.0000000000000D+00  0.0000000000000D+00
328  3.2700000000000D+00  0.0000000000000D+00  0.0000000000000D+00
329  3.2800000000000D+00  0.0000000000000D+00  0.0000000000000D+00
330  3.2900000000000D+00  0.0000000000000D+00  0.0000000000000D+00
331  3.3000000000000D+00  0.0000000000000D+00  0.0000000000000D+00
332  3.3100000000000D+00  0.0000000000000D+00  0.0000000000000D+00
333  3.3200000000000D+00  0.0000000000000D+00  0.0000000000000D+00
334  3.3300000000000D+00  0.0000000000000D+00  0.0000000000000D+00
335  3.3400000000000D+00  0.0000000000000D+00  0.0000000000000D+00
336  3.3500000000000D+00  0.0000000000000D+00  0.0000000000000D+00
337  3.3600000000000D+00  0.0000000000000D+00  0.0000000000000D+00
338  3.3700000000000D+00  0.0000000000000D+00  0.0000000000000D+00
339  3.3800000000000D+00  0.0000000000000D+00  0.0000000000000D+00
340  3.3900000000000D+00  0.0000000000000D+00  0.0000000000000D+00
341  3.4000000000000D+00  0.0000000000000D+00  0.0000000000000D+00
342  3.4100000000000D+00  0.0000000000000D+00  0.0000000000000D+00
343  3.4200000000000D+00  0.0000000000000D+00  0.0000000000000D+00
344  3.4300000000000D+00  0.0000000000000D+00  0.0000000000000D+00
345  3.4400000000000D+00  0.0000000000000D+00  0.0000000000000D+00
346  3.4500000000000D+00  0.0000000000000D+00  0.0000000000000D+00
347  3.4600000000000D+00  0.0000000000000D+00  0.0000000000000D+00
348  3.4700000000000D+00  0.0000000000000D+00  0.0000000000000D+00
349  3.4800000000000D+00  0.0000000000000D+00  0.0000000000000D+00
350  3.4900000000000D+00  0.0000000000000D+00  0.0000000000000D+00
351  3.5000000000000D+00  0.0000000000000D+00  0.0000000000000D+00
352  3.5100000000000D+00  0.0000000000000D+00  0.0000000000000D+00
353  3.5200000000000D+00  0.0000000000000D+00  0.0000000000000D+00
354  3.5300000000000D+00  0.0000000000000D+00  0.0000000000000D+00
355  3.5400000000000D+00  0.0000000000000D+00  0.0000000000000D+00
356  3.5500000000000D+00  0.0000000000000D+00  0.0000000000000D+00
357  3.5600000000000D+00  0.0000000000000D+00  0.0000000000000D+00
358  3.5700000000000D+00  0.0000000000000D+00  0.0000000000000D+00
359  3.5800000000000D+00  0.0000000000000D+00  0.0000000000000D+00
360  3.5900000000000D+00  0.0000000000000D+00  0.0000000000000D+00
361  3.6000000000000D+00  0.0000000000000D+00  0.0000000000000D+00
362  3.6100000000000D+00  0.0000000000000D+00  0.0000000000000D+00
363  3.6200000000000D+00  0.0000000000000D+00  0.0000000000000D+00
364  3.6300000000000D+00  0.0000000000000D+00  0.0000000000000D+00
365  3.6400000000000D+00  0.0000000000000D+00  0.0000000000000D+00
366  3.6500000000000D+00  0.0000000000000D+00  0.0000000000000D+00
367  3.6600000000000D+00  0.0000000000000D+00  0.0000000000000D+00
368  3.6700000000000D+00  0.0000000000000D+00  0.0000000000000D+00
369  3.6800000000000D+00  0.0000000000000D+00  0.0000000000000D+00
370  3.6900000000000D+00  0.0000000000000D+00  0.0000000000000D+00
371  3.7000000000000D+00  0.0000000000000D+00  0.0000000000000D+00
372  3.7100000000000D+00  0.0000000000000D+00  0.0000000000000D+00
373  3.7200000000000D+00  0.0000000000000D+00  0.0000000000000D+00
374  3.7300000000000D+00  0.0000000000000D+00  0.0000000000000D+00
375  3.7400000000000D+00  0.0000000000000D+00  0.0000000000000D+00
376  3.7500000000000D+00  0.0000000000000D+00  0.0000000000000D+00
377  3.7600000000000D+00  0.0000000000000D+00  0.0000000000000D+00
378  3.7700000000000D+00  0.0000000000000D+00  0.0000000000000D+00
379  3.7800000000000D+00  0.0000000000000D+00  0.0000000000000D+00
380  3.7900000000000D+00  0.0000000000000D+00  0.0000000000000D+00
381  3.8000000000000D+00  0.0000000000000D+00  0.0000000000000D+00
382  3.8100000000000D+00  0.0000000000000D+00  0.0000000000000D+00
383  3.8200000000000D+00  0.0000000000000D+00  0.0000000000000D+00
384  3.8300000000000D+00  0.0000000000000D+00  0.0000000000000D+00
385  3.8400000000000D+00  0.0000000000000D+00  0.0000000000000D+00
386  3.8500000000000D+00  0.0000000000000D+00  0.0000000000000D+00
387  3.8600000000000D+00  0.0000000000000D+00  0.0000000000000D+00
388  3.8700000000000D+00  0.0000000000000D+00  0.0000000000000D+00
389  3.8800000000000D+00  0.0000000000000D+00  0.0000000000000D+00
390  3.8900000000000D+00  0.0000000000000D+00  0.0000000000000D+00
391  3.9000000000000D+00  0.0000000000000D+00  0.0000000000000D+00
392  3.9100000000000D+00  0.0000000000000D+00  0.0000000000000D+00
393  3.9200000000000D+00  0.0000000000000D+00  0.0000000000000D+00
394  3.9300000000000D+00  0.0000000000000D+00  0.0000000000000D+00
395  3.9400000000000D+00  0.0000000000000D+00  0.0000000000000D+00
396  3.9500000000000D+00  0.0000000000000D+00  0.0000000000000D+00
397  3.9600000000000D+00  0.0000000000000D+00  0.0000000000000D+00
398  3.9700000000000D+00  0.0000000000000D+00  0.0000000000000D+00
399  3.9800000000000D+00  0.0000000000000D+00  0.0000000000000D+00
400  3.9900000000000D+00  0.0000000000000D+00  0.0000000000000D+00
401  4.0000000000000D+00  0.0000000000000D+00  0.0000000000000D+00
402  4.0100000000000D+00  0.0000000000000D+00  0.0000000000000D+00
403  4.0200000000000D+00  0.0000000000000D+00  0.0000000000000D+00
404  4.0300000000000D+00  0.0000000000000D+00  0.0000000000000D+00
405  4.0400000000000D+00  0.0000000000000D+00  0.0000000000000D+00
406  4.0500000000000D+00  0.0000000000000D+00  0.0000000000000D+00
407  4.0600000000000D+00  0.0000000000000D+00  0.0000000000000D+00
408  4.0700000000000D+00  0.0000000000000D+00  0.0000000000000D+00
409  4.0800000000000D+00  0.0000000000000D+00  0.0000000000000D+00
410  4.0900000000000D+00  0.0000000000000D+00  0.0000000000000D+00
411  4.1000000000000D+00  0.0000000000000D+00  0.0000000000000D+00
412  4.1100000000000D+00  0.0000000000000D+00  0.0000000000000D+00
413  4.1200000000000D+00  0.0000000000000D+00  0.0000000000000D+00
414  4.1300000000000D+00  0.0000000000000D+00  0.0000000000000D+00
415  4.1400000000000D+00  0.0000000000000D+00  0.0000000000000D+00
416  4.1500000000000D+00  0.0000000000000D+00  0.0000000000000D+00
417  4.1600000000000D+00  0.0000000000000D+00  0.0000000000000D+00
418  4.1700000000000D+00  0.0000000000000D+00  0.0000000000000D+00
419  4.1800000000000D+00  0.0000000000000D+00  0.0000000000000D+00
420  4.1900000000000D+00  0.0000000000000D+00  0.0000000000000D+00
421  4.2000000000000D+00  0.0000000000000D+00  0.0000000000000D+00
422  4.2100000000000D+00  0.0000000000000D+00  0.0000000000000D+00
423  4.2200000000000D+00  0.0000000000000D+00  0.0000000000000D+00
424  4.2300000000000D+00  0.0000000000000D+00  0.0000000000000D+00
425  4.2400000000000D+00  0.0000000000000D+00  0.0000000000000D+00
426  4.2500000000000D+00  0.0000000000000D+00  0.0000000000000D+00
427  4.2600000000000D+00  0.0000000000000D+00  0.0000000000000D+00
428  4.2700000000000D+00  0.0000000000000D+00  0.0000000000000D+00
429  4.2800000000000D+00  0.0000000000000D+00  0.0000000000000D+00
430  4.2900000000000D+00  0.0000000000000D+00  0.0000000000000D+00
431  4.3000000000000D+00  0.0000000000000D+00  0.0000000000000D+00
432  4.3100000000000D+00  0.0000000000000D+00  0.0000000000000D+00
433  4.3200000000000D+00  0.0000000000000D+00  0.0000000000000D+00
434  4.3300000000000D+00  0.0000000000000D+00  0.0000000000000D+00
435  4.3400000000000D+00  0.0000000000000D+00  0.0000000000000D+00
436  4.3500000000000D+00  0.0000000000000D+00  0.0000000000000D+00
437  4.3600000000000D+00  0.0000000000000D+00  0.0000000000000D+00
438  4.3700000000000D+00  0.0000000000000D+00  0.0000000000000D+00
439  4.3800000000000D+00  0.0000000000000D+00  0.0000000000000D+00
440  4.3900000000000D+00  0.0000000000000D+00  0.0000000000000D+00
441  4.4000000000000D+00  0.0000000000000D+00  0.0000000000000D+00
442  4.4100000000000D+00  0.0000000000000D+00  0.0000000000000D+00
443  4.4200000000000D+00  0.0000000000000D+00  0.0000000000000D+00