Br    ONCVPSP-3.3.0  r_core=   1.81012   1.51356   1.92136
35.0000      7.0000      180503    zatom,zion,pspd
8 -116133   2     4   600     0    pspcod,pspxc,lmax,lloc,mmax,r2well
5.99000000  8.00000000  0.00000000    rchrg fchrg qchrg
2     3     3     0    nproj
3     1           extension_switch
4     4     0    nprojso
0                         8.9747950428966D-01  8.5083614639153D+00
1  0.0000000000000D+00  3.9767630855003D-10 -2.0008422696449D-10
2  1.0000000000000D-02 -1.7309118888166D-02  3.8697932916916D-02
3  2.0000000000000D-02 -3.4557718782315D-02  7.7354464290822D-02
4  3.0000000000000D-02 -5.1685851409994D-02  1.1592845592959D-01
5  4.0000000000000D-02 -6.8634702001391D-02  1.5437929251240D-01
6  5.0000000000000D-02 -8.5347136291968D-02  1.9266713350097D-01
7  6.0000000000000D-02 -1.0176822411240D-01  2.3075315376528D-01
8  7.0000000000000D-02 -1.1784573223413D-01  2.6859976939994D-01
9  8.0000000000000D-02 -1.3353057953663D-01  3.0617084540745D-01
10  9.0000000000000D-02 -1.4877724805020D-01  3.4343188216975D-01
11  1.0000000000000D-01 -1.6354414400108D-01  3.8035017791722D-01
12  1.1000000000000D-01 -1.7779390363493D-01  4.1689496473048D-01
13  1.2000000000000D-01 -1.9149363931503D-01  4.5303751597061D-01
14  1.3000000000000D-01 -2.0461512217120D-01  4.8875122342452D-01
15  1.4000000000000D-01 -2.1713489840803D-01  5.2401164286714D-01
16  1.5000000000000D-01 -2.2903433725340D-01  5.5879650717817D-01
17  1.6000000000000D-01 -2.4029960943247D-01  5.9308570659987D-01
18  1.7000000000000D-01 -2.5092159597521D-01  6.2686123618138D-01
19  1.8000000000000D-01 -2.6089572809707D-01  6.6010711091500D-01
20  1.9000000000000D-01 -2.7022175982061D-01  6.9280924952823D-01
21  2.0000000000000D-01 -2.7890347591932D-01  7.2495532834328D-01
22  2.1000000000000D-01 -2.8694833865218D-01  7.5653460704997D-01
23  2.2000000000000D-01 -2.9436707760796D-01  7.8753772865062D-01
24  2.3000000000000D-01 -3.0117322778071D-01  8.1795649622341D-01
25  2.4000000000000D-01 -3.0738262174218D-01  8.4778362950629D-01
26  2.5000000000000D-01 -3.1301284245449D-01  8.7701250462496D-01
27  2.6000000000000D-01 -3.1808264386703D-01  9.0563688056811D-01
28  2.7000000000000D-01 -3.2261134695840D-01  9.3365061625043D-01
29  2.8000000000000D-01 -3.2661821931058D-01  9.6104738219282D-01
30  2.9000000000000D-01 -3.3012184663143D-01  9.8782037098894D-01
31  3.0000000000000D-01 -3.3313950486916D-01  1.0139620108141D+00
32  3.1000000000000D-01 -3.3568654168547D-01  1.0394636862667D+00
33  3.2000000000000D-01 -3.3777577606885D-01  1.0643154708096D+00
34  3.3000000000000D-01 -3.3941692477640D-01  1.0885058750065D+00
35  3.4000000000000D-01 -3.4061606409115D-01  1.1120216146137D+00
36  3.5000000000000D-01 -3.4137513507361D-01  1.1348474024073D+00
37  3.6000000000000D-01 -3.4169150007400D-01  1.1569657673905D+00
38  3.7000000000000D-01 -3.4155755775993D-01  1.1783569047418D+00
39  3.8000000000000D-01 -3.4096042330728D-01  1.1989985595335D+00
40  3.9000000000000D-01 -3.3988167970717D-01  1.2188659468810D+00
41  4.0000000000000D-01 -3.3829720536652D-01  1.2379317107700D+00
42  4.1000000000000D-01 -3.3617708233087D-01  1.2561659233678D+00
43  4.2000000000000D-01 -3.3348558854800D-01  1.2735361261499D+00
44  4.3000000000000D-01 -3.3018127662646D-01  1.2900074136808D+00
45  4.4000000000000D-01 -3.2621714053802D-01  1.3055425603743D+00
46  4.5000000000000D-01 -3.2154087067650D-01  1.3201021900364D+00
47  4.6000000000000D-01 -3.1609519663135D-01  1.3336449874650D+00
48  4.7000000000000D-01 -3.0981831597291D-01  1.3461279508548D+00
49  4.8000000000000D-01 -3.0264440629148D-01  1.3575066832388D+00
50  4.9000000000000D-01 -2.9450421669559D-01  1.3677357206900D+00
51  5.0000000000000D-01 -2.8532573396834D-01  1.3767688945279D+00
52  5.1000000000000D-01 -2.7503491761742D-01  1.3845597243119D+00
53  5.2000000000000D-01 -2.6355649714379D-01  1.3910618379827D+00
54  5.3000000000000D-01 -2.5081482401011D-01  1.3962294151225D+00
55  5.4000000000000D-01 -2.3673477001986D-01  1.4000176489593D+00
56  5.5000000000000D-01 -2.2124266313315D-01  1.4023832224436D+00
57  5.6000000000000D-01 -2.0426725115486D-01  1.4032847934767D+00
58  5.7000000000000D-01 -1.8574068323867D-01  1.4026834841768D+00
59  5.8000000000000D-01 -1.6559949876930D-01  1.4005433689318D+00
60  5.9000000000000D-01 -1.4378561291317D-01  1.3968319559121D+00
61  6.0000000000000D-01 -1.2024728797513D-01  1.3915206566972D+00
62  6.1000000000000D-01 -9.4940079664024D-02  1.3845852387149D+00
63  6.2000000000000D-01 -6.7827747455481D-02  1.3760062552979D+00
64  6.3000000000000D-01 -3.8883118448465D-02  1.3657694483262D+00
65  6.4000000000000D-01 -8.0888944368117D-03  1.3538661186491D+00
66  6.5000000000000D-01  2.4561607640433D-02  1.3402934597600D+00
67  6.6000000000000D-01  5.9063791150074D-02  1.3250548505342D+00
68  6.7000000000000D-01  9.5401199737563D-02  1.3081601032212D+00
69  6.8000000000000D-01  1.3354502967992D-01  1.2896256633155D+00
70  6.9000000000000D-01  1.7345374162186D-01  1.2694747584030D+00
71  7.0000000000000D-01  2.1507277776099D-01  1.2477374935860D+00
72  7.1000000000000D-01  2.5833438953900D-01  1.2244508916286D+00
73  7.2000000000000D-01  3.0315757981938D-01  1.1996588765303D+00
74  7.3000000000000D-01  3.4944816240777D-01  1.1734121998115D+00
75  7.4000000000000D-01  3.9709894060741D-01  1.1457683093918D+00
76  7.5000000000000D-01  4.4599000531128D-01  1.1167911615367D+00
77  7.6000000000000D-01  4.9598915192629D-01  1.0865509769436D+00
78  7.7000000000000D-01  5.4695241422526D-01  1.0551239426215D+00
79  7.8000000000000D-01  5.9872471202308D-01  1.0225918617956D+00
80  7.9000000000000D-01  6.5114060841263D-01  9.8904175460646D-01
81  8.0000000000000D-01  7.0402517116601D-01  9.5456541290095D-01
82  8.1000000000000D-01  7.5719493182994D-01  9.1925891289002D-01
83  8.2000000000000D-01  8.1045893503022D-01  8.8322208989671D-01
84  8.3000000000000D-01  8.6361986955883D-01  8.4655797981406D-01
85  8.4000000000000D-01  9.1647527196196D-01  8.0937223224189D-01
86  8.5000000000000D-01  9.6881879258287D-01  7.7177250056597D-01
87  8.6000000000000D-01  1.0204415133528D+00  7.3386781447988D-01
88  8.7000000000000D-01  1.0711333060706D+00  6.9576794062693D-01
89  8.8000000000000D-01  1.1206842194718D+00  6.5758273715420D-01
90  8.9000000000000D-01  1.1688858830730D+00  6.1942150802231D-01
91  9.0000000000000D-01  1.2155329155760D+00  5.8139236290174D-01
92  9.1000000000000D-01  1.2604243255486D+00  5.4360158841095D-01
93  9.2000000000000D-01  1.3033648921496D+00  5.0615303631240D-01
94  9.3000000000000D-01  1.3441665138428D+00  4.6914753408349D-01
95  9.4000000000000D-01  1.3826495133437D+00  4.3268232302148D-01
96  9.5000000000000D-01  1.4186438874582D+00  3.9685052872916D-01
97  9.6000000000000D-01  1.4519904910037D+00  3.6174066846193D-01
98  9.7000000000000D-01  1.4825421446393D+00  3.2743619940740D-01
99  9.8000000000000D-01  1.5101646571578D+00  2.9401511151929D-01
100  9.9000000000000D-01  1.5347377536354D+00  2.6154956802973D-01
101  1.0000000000000D+00  1.5561559017279D+00  2.3010559625180D-01
102  1.0100000000000D+00  1.5743290293872D+00  1.9974283073711D-01
103  1.0200000000000D+00  1.5891831283059D+00  1.7051431029382D-01
104  1.0300000000000D+00  1.6006607385002D+00  1.4246632978944D-01
105  1.0400000000000D+00  1.6087213105410D+00  1.1563834709983D-01
106  1.0500000000000D+00  1.6133414430909D+00  9.0062944987913D-02
107  1.0600000000000D+00  1.6145149945972D+00  6.5765847116402D-02
108  1.0700000000000D+00  1.6122530691071D+00  4.2765986869788D-02
109  1.0800000000000D+00  1.6065838773474D+00  2.1075627118336D-02
110  1.0900000000000D+00  1.5975524753125D+00  7.0052856851968D-04
111  1.1000000000000D+00  1.5852203836423D+00 -1.8359836106158D-02
112  1.1100000000000D+00  1.5696650922085D+00 -3.6112025625527D-02
113  1.1200000000000D+00  1.5509794551934D+00 -5.2568334564740D-02
114  1.1300000000000D+00  1.5292709829573D+00 -6.7746462895464D-02
115  1.1400000000000D+00  1.5046610376227D+00 -8.1669154808223D-02
116  1.1500000000000D+00  1.4772839403028D+00 -9.4363811325607D-02
117  1.1600000000000D+00  1.4472859983601D+00 -1.0586208132456D-01
118  1.1700000000000D+00  1.4148244617158D+00 -1.1619943570996D-01
119  1.1800000000000D+00  1.3800664175930D+00 -1.2541472955072D-01
120  1.1900000000000D+00  1.3431876335692D+00 -1.3354975698439D-01
121  1.2000000000000D+00  1.3043713589170D+00 -1.4064880360109D-01
122  1.2100000000000D+00  1.2638070943736D+00 -1.4675820093612D-01
123  1.2200000000000D+00  1.2216893405729D+00 -1.5192588754078D-01
124  1.2300000000000D+00  1.1782163352133D+00 -1.5620098081525D-01
125  1.2400000000000D+00  1.1335887888204D+00 -1.5963336352728D-01
126  1.2500000000000D+00  1.0880086289015D+00 -1.6227328877599D-01
127  1.2600000000000D+00  1.0416777616535D+00 -1.6417100657108D-01
128  1.2700000000000D+00  9.9479685993132D-01 -1.6537641487744D-01
129  1.2800000000000D+00  9.4756418612008D-01 -1.6593873785255D-01
130  1.2900000000000D+00  9.0017445728558D-01 -1.6590623308977D-01
131  1.3000000000000D+00  8.5281775955653D-01 -1.6532592945944D-01
132  1.3100000000000D+00  8.0567851857161D-01 -1.6424339698597D-01
133  1.3200000000000D+00  7.5893453096329D-01 -1.6270254907030D-01
134  1.3300000000000D+00  7.1275606182304D-01 -1.6074547740603D-01
135  1.3400000000000D+00  6.6730501255996D-01 -1.5841231955360D-01
136  1.3500000000000D+00  6.2273416149363D-01 -1.5574115807844D-01
137  1.3600000000000D+00  5.7918648017470D-01 -1.5276795051489D-01
138  1.3700000000000D+00  5.3679452689024D-01 -1.4952648857804D-01
139  1.3800000000000D+00  4.9567991733852D-01 -1.4604838450238D-01
140  1.3900000000000D+00  4.5595287369628D-01 -1.4236308282912D-01
141  1.4000000000000D+00  4.1771185011354D-01 -1.3849789467881D-01
142  1.4100000000000D+00  3.8104323368664D-01 -1.3447805207066D-01
143  1.4200000000000D+00  3.4602111912144D-01 -1.3032677935076D-01
144  1.4300000000000D+00  3.1270715342242D-01 -1.2606537851635D-01
145  1.4400000000000D+00  2.8115044861730D-01 -1.2171332546179D-01
146  1.4500000000000D+00  2.5138755777059D-01 -1.1728837372113D-01
147  1.4600000000000D+00  2.2344251084175D-01 -1.1280666268089D-01
148  1.4700000000000D+00  1.9732690142462D-01 -1.0828282595553D-01
149  1.4800000000000D+00  1.7304004014630D-01 -1.0373010099596D-01
150  1.4900000000000D+00  1.5056912505885D-01 -9.9160428445939D-02
151  1.5000000000000D+00  1.2988961899989D-01 -9.4584574672230D-02
152  1.5100000000000D+00  1.1096500978978D-01 -9.0012122581993D-02
153  1.5200000000000D+00  9.3747646475642D-02 -8.5451644808584D-02
154  1.5300000000000D+00  7.8180739012826D-02 -8.0911063504579D-02
155  1.5400000000000D+00  6.4200140216463D-02 -7.6397983899926D-02
156  1.5500000000000D+00  5.1736681083101D-02 -7.1920127272105D-02
157  1.5600000000000D+00  4.0716846273636D-02 -6.7485443445769D-02
158  1.5700000000000D+00  3.1063085096944D-02 -6.3102147835042D-02
159  1.5800000000000D+00  2.2694734697402D-02 -5.8778837193758D-02
160  1.5900000000000D+00  1.5528616686986D-02 -5.4524531355187D-02
161  1.6000000000000D+00  9.4797217260118D-03 -5.0348708724938D-02
162  1.6100000000000D+00  4.4618448314507D-03 -4.6261315075539D-02
163  1.6200000000000D+00  3.8820133939192D-04 -4.2272750307236D-02
164  1.6300000000000D+00 -2.8279819003284D-03 -3.8393835181439D-02
165  1.6400000000000D+00 -5.2729044534787D-03 -3.4635757847120D-02
166  1.6500000000000D+00 -7.0316595296886D-03 -3.1010002991496D-02
167  1.6600000000000D+00 -8.1877331776508D-03 -2.7528264585285D-02
168  1.6700000000000D+00 -8.8225354923089D-03 -2.4202345073459D-02
169  1.6800000000000D+00 -9.0149652128951D-03 -2.1044042727521D-02
170  1.6900000000000D+00 -8.8410074510156D-03 -1.8065030131560D-02
171  1.7000000000000D+00 -8.3733650889187D-03 -1.5276725872063D-02
172  1.7100000000000D+00 -7.6811231503223D-03 -1.2690162530338D-02
173  1.7200000000000D+00 -6.8294462388933D-03 -1.0315853131594D-02
174  1.7300000000000D+00 -5.8793079139591D-03 -8.1636590975362D-03
175  1.7400000000000D+00 -4.8872518865245D-03 -6.2426618924300D-03
176  1.7500000000000D+00 -3.9062532965297D-03 -4.5614649601753D-03
177  1.7600000000000D+00 -2.9823573139411D-03 -3.1268184228763D-03
178  1.7700000000000D+00 -2.1487675534824D-03 -1.9420610015429D-03
179  1.7800000000000D+00 -1.4474157609024D-03 -1.0138820893261D-03
180  1.7900000000000D+00 -9.5411873291880D-04 -3.5542396562676D-04
181  1.8000000000000D+00 -6.9089605063995D-04  3.5755302536634D-05
182  1.8100000000000D+00 -5.0813039383496D-04  1.8311356393803D-04
183  1.8200000000000D+00 -2.5569130721213D-04  1.3222335975266D-04
184  1.8300000000000D+00 -3.0994893970653D-05  1.8415039622784D-05
185  1.8400000000000D+00  4.5307873083849D-05 -2.8537912503484D-05
186  1.8500000000000D+00  1.9074508976944D-05 -1.2659251791744D-05
187  1.8600000000000D+00 -9.0273482762827D-06  5.1160922363985D-06
188  1.8700000000000D+00 -7.4350286936325D-06  4.3159339003350D-06
189  1.8800000000000D+00  8.3568258055878D-07 -3.0324099836111D-07
190  1.8900000000000D+00  1.2948499973312D-06 -4.6985735380059D-07
191  1.9000000000000D+00  0.0000000000000D+00  0.0000000000000D+00
192  1.9100000000000D+00  0.0000000000000D+00  0.0000000000000D+00
193  1.9200000000000D+00  0.0000000000000D+00  0.0000000000000D+00
194  1.9300000000000D+00  0.0000000000000D+00  0.0000000000000D+00
195  1.9400000000000D+00  0.0000000000000D+00  0.0000000000000D+00
196  1.9500000000000D+00  0.0000000000000D+00  0.0000000000000D+00
197  1.9600000000000D+00  0.0000000000000D+00  0.0000000000000D+00
198  1.9700000000000D+00  0.0000000000000D+00  0.0000000000000D+00
199  1.9800000000000D+00  0.0000000000000D+00  0.0000000000000D+00
200  1.9900000000000D+00  0.0000000000000D+00  0.0000000000000D+00
201  2.0000000000000D+00  0.0000000000000D+00  0.0000000000000D+00
202  2.0100000000000D+00  0.0000000000000D+00  0.0000000000000D+00
203  2.0200000000000D+00  0.0000000000000D+00  0.0000000000000D+00
204  2.0300000000000D+00  0.0000000000000D+00  0.0000000000000D+00
205  2.0400000000000D+00  0.0000000000000D+00  0.0000000000000D+00
206  2.0500000000000D+00  0.0000000000000D+00  0.0000000000000D+00
207  2.0600000000000D+00  0.0000000000000D+00  0.0000000000000D+00
208  2.0700000000000D+00  0.0000000000000D+00  0.0000000000000D+00
209  2.0800000000000D+00  0.0000000000000D+00  0.0000000000000D+00
210  2.0900000000000D+00  0.0000000000000D+00  0.0000000000000D+00
211  2.1000000000000D+00  0.0000000000000D+00  0.0000000000000D+00
212  2.1100000000000D+00  0.0000000000000D+00  0.0000000000000D+00
213  2.1200000000000D+00  0.0000000000000D+00  0.0000000000000D+00
214  2.1300000000000D+00  0.0000000000000D+00  0.0000000000000D+00
215  2.1400000000000D+00  0.0000000000000D+00  0.0000000000000D+00
216  2.1500000000000D+00  0.0000000000000D+00  0.0000000000000D+00
217  2.1600000000000D+00  0.0000000000000D+00  0.0000000000000D+00
218  2.1700000000000D+00  0.0000000000000D+00  0.0000000000000D+00
219  2.1800000000000D+00  0.0000000000000D+00  0.0000000000000D+00
220  2.1900000000000D+00  0.0000000000000D+00  0.0000000000000D+00
221  2.2000000000000D+00  0.0000000000000D+00  0.0000000000000D+00
222  2.2100000000000D+00  0.0000000000000D+00  0.0000000000000D+00
223  2.2200000000000D+00  0.0000000000000D+00  0.0000000000000D+00
224  2.2300000000000D+00  0.0000000000000D+00  0.0000000000000D+00
225  2.2400000000000D+00  0.0000000000000D+00  0.0000000000000D+00
226  2.2500000000000D+00  0.0000000000000D+00  0.0000000000000D+00
227  2.2600000000000D+00  0.0000000000000D+00  0.0000000000000D+00
228  2.2700000000000D+00  0.0000000000000D+00  0.0000000000000D+00
229  2.2800000000000D+00  0.0000000000000D+00  0.0000000000000D+00
230  2.2900000000000D+00  0.0000000000000D+00  0.0000000000000D+00
231  2.3000000000000D+00  0.0000000000000D+00  0.0000000000000D+00
232  2.3100000000000D+00  0.0000000000000D+00  0.0000000000000D+00
233  2.3200000000000D+00  0.0000000000000D+00  0.0000000000000D+00
234  2.3300000000000D+00  0.0000000000000D+00  0.0000000000000D+00
235  2.3400000000000D+00  0.0000000000000D+00  0.0000000000000D+00
236  2.3500000000000D+00  0.0000000000000D+00  0.0000000000000D+00
237  2.3600000000000D+00  0.0000000000000D+00  0.0000000000000D+00
238  2.3700000000000D+00  0.0000000000000D+00  0.0000000000000D+00
239  2.3800000000000D+00  0.0000000000000D+00  0.0000000000000D+00
240  2.3900000000000D+00  0.0000000000000D+00  0.0000000000000D+00
241  2.4000000000000D+00  0.0000000000000D+00  0.0000000000000D+00
242  2.4100000000000D+00  0.0000000000000D+00  0.0000000000000D+00
243  2.4200000000000D+00  0.0000000000000D+00  0.0000000000000D+00
244  2.4300000000000D+00  0.0000000000000D+00  0.0000000000000D+00
245  2.4400000000000D+00  0.0000000000000D+00  0.0000000000000D+00
246  2.4500000000000D+00  0.0000000000000D+00  0.0000000000000D+00
247  2.4600000000000D+00  0.0000000000000D+00  0.0000000000000D+00
248  2.4700000000000D+00  0.0000000000000D+00  0.0000000000000D+00
249  2.4800000000000D+00  0.0000000000000D+00  0.0000000000000D+00
250  2.4900000000000D+00  0.0000000000000D+00  0.0000000000000D+00
251  2.5000000000000D+00  0.0000000000000D+00  0.0000000000000D+00
252  2.5100000000000D+00  0.0000000000000D+00  0.0000000000000D+00
253  2.5200000000000D+00  0.0000000000000D+00  0.0000000000000D+00
254  2.5300000000000D+00  0.0000000000000D+00  0.0000000000000D+00
255  2.5400000000000D+00  0.0000000000000D+00  0.0000000000000D+00
256  2.5500000000000D+00  0.0000000000000D+00  0.0000000000000D+00
257  2.5600000000000D+00  0.0000000000000D+00  0.0000000000000D+00
258  2.5700000000000D+00  0.0000000000000D+00  0.0000000000000D+00
259  2.5800000000000D+00  0.0000000000000D+00  0.0000000000000D+00
260  2.5900000000000D+00  0.0000000000000D+00  0.0000000000000D+00
261  2.6000000000000D+00  0.0000000000000D+00  0.0000000000000D+00
262  2.6100000000000D+00  0.0000000000000D+00  0.0000000000000D+00
263  2.6200000000000D+00  0.0000000000000D+00  0.0000000000000D+00
264  2.6300000000000D+00  0.0000000000000D+00  0.0000000000000D+00
265  2.6400000000000D+00  0.0000000000000D+00  0.0000000000000D+00
266  2.6500000000000D+00  0.0000000000000D+00  0.0000000000000D+00
267  2.6600000000000D+00  0.0000000000000D+00  0.0000000000000D+00
268  2.6700000000000D+00  0.0000000000000D+00  0.0000000000000D+00
269  2.6800000000000D+00  0.0000000000000D+00  0.0000000000000D+00
270  2.6900000000000D+00  0.0000000000000D+00  0.0000000000000D+00
271  2.7000000000000D+00  0.0000000000000D+00  0.0000000000000D+00
272  2.7100000000000D+00  0.0000000000000D+00  0.0000000000000D+00
273  2.7200000000000D+00  0.0000000000000D+00  0.0000000000000D+00
274  2.7300000000000D+00  0.0000000000000D+00  0.0000000000000D+00
275  2.7400000000000D+00  0.0000000000000D+00  0.0000000000000D+00
276  2.7500000000000D+00  0.0000000000000D+00  0.0000000000000D+00
277  2.7600000000000D+00  0.0000000000000D+00  0.0000000000000D+00
278  2.7700000000000D+00  0.0000000000000D+00  0.0000000000000D+00
279  2.7800000000000D+00  0.0000000000000D+00  0.0000000000000D+00
280  2.7900000000000D+00  0.0000000000000D+00  0.0000000000000D+00
281  2.8000000000000D+00  0.0000000000000D+00  0.0000000000000D+00
282  2.8100000000000D+00  0.0000000000000D+00  0.0000000000000D+00
283  2.8200000000000D+00  0.0000000000000D+00  0.0000000000000D+00
284  2.8300000000000D+00  0.0000000000000D+00  0.0000000000000D+00
285  2.8400000000000D+00  0.0000000000000D+00  0.0000000000000D+00
286  2.8500000000000D+00  0.0000000000000D+00  0.0000000000000D+00
287  2.8600000000000D+00  0.0000000000000D+00  0.0000000000000D+00
288  2.8700000000000D+00  0.0000000000000D+00  0.0000000000000D+00
289  2.8800000000000D+00  0.0000000000000D+00  0.0000000000000D+00
290  2.8900000000000D+00  0.0000000000000D+00  0.0000000000000D+00
291  2.9000000000000D+00  0.0000000000000D+00  0.0000000000000D+00
292  2.9100000000000D+00  0.0000000000000D+00  0.0000000000000D+00
293  2.9200000000000D+00  0.0000000000000D+00  0.0000000000000D+00
294  2.9300000000000D+00  0.0000000000000D+00  0.0000000000000D+00
295  2.9400000000000D+00  0.0000000000000D+00  0.0000000000000D+00
296  2.9500000000000D+00  0.0000000000000D+00  0.0000000000000D+00
297  2.9600000000000D+00  0.0000000000000D+00  0.0000000000000D+00
298  2.9700000000000D+00  0.0000000000000D+00  0.0000000000000D+00
299  2.9800000000000D+00  0.0000000000000D+00  0.0000000000000D+00
300  2.9900000000000D+00  0.0000000000000D+00  0.0000000000000D+00
301  3.0000000000000D+00  0.0000000000000D+00  0.0000000000000D+00
302  3.0100000000000D+00  0.0000000000000D+00  0.0000000000000D+00
303  3.0200000000000D+00  0.0000000000000D+00  0.0000000000000D+00
304  3.0300000000000D+00  0.0000000000000D+00  0.0000000000000D+00
305  3.0400000000000D+00  0.0000000000000D+00  0.0000000000000D+00
306  3.0500000000000D+00  0.0000000000000D+00  0.0000000000000D+00
307  3.0600000000000D+00  0.0000000000000D+00  0.0000000000000D+00
308  3.0700000000000D+00  0.0000000000000D+00  0.0000000000000D+00
309  3.0800000000000D+00  0.0000000000000D+00  0.0000000000000D+00
310  3.0900000000000D+00  0.0000000000000D+00  0.0000000000000D+00
311  3.1000000000000D+00  0.0000000000000D+00  0.0000000000000D+00
312  3.1100000000000D+00  0.0000000000000D+00  0.0000000000000D+00
313  3.1200000000000D+00  0.0000000000000D+00  0.0000000000000D+00
314  3.1300000000000D+00  0.0000000000000D+00  0.0000000000000D+00
315  3.1400000000000D+00  0.0000000000000D+00  0.0000000000000D+00
316  3.1500000000000D+00  0.0000000000000D+00  0.0000000000000D+00
317  3.1600000000000D+00  0.0000000000000D+00  0.0000000000000D+00
318  3.1700000000000D+00  0.0000000000000D+00  0.0000000000000D+00
319  3.1800000000000D+00  0.0000000000000D+00  0.0000000000000D+00
320  3.1900000000000D+00  0.0000000000000D+00  0.0000000000000D+00
321  3.2000000000000D+00  0.0000000000000D+00  0.0000000000000D+00
322  3.2100000000000D+00  0.0000000000000D+00  0.0000000000000D+00
323  3.2200000000000D+00  0.0000000000000D+00  0.0000000000000D+00
324  3.2300000000000D+00  0.0000000000000D+00  0.0000000000000D+00
325  3.2400000000000D+00  0.0000000000000D+00  0.0000000000000D+00
326  3.2500000000000D+00  0.0000000000000D+00  0.0000000000000D+00
327  3.2600000000000D+00  0.0000000000000D+00  0.0000000000000D+00
328  3.2700000000000D+00  0.0000000000000D+00  0.0000000000000D+00
329  3.2800000000000D+00  0.0000000000000D+00  0.0000000000000D+00
330  3.2900000000000D+00  0.0000000000000D+00  0.0000000000000D+00
331  3.3000000000000D+00  0.0000000000000D+00  0.0000000000000D+00
332  3.3100000000000D+00  0.0000000000000D+00  0.0000000000000D+00
333  3.3200000000000D+00  0.0000000000000D+00  0.0000000000000D+00
334  3.3300000000000D+00  0.0000000000000D+00  0.0000000000000D+00
335  3.3400000000000D+00  0.0000000000000D+00  0.0000000000000D+00
336  3.3500000000000D+00  0.0000000000000D+00  0.0000000000000D+00
337  3.3600000000000D+00  0.0000000000000D+00  0.0000000000000D+00
338  3.3700000000000D+00  0.0000000000000D+00  0.0000000000000D+00
339  3.3800000000000D+00  0.0000000000000D+00  0.0000000000000D+00
340  3.3900000000000D+00  0.0000000000000D+00  0.0000000000000D+00
341  3.4000000000000D+00  0.0000000000000D+00  0.0000000000000D+00
342  3.4100000000000D+00  0.0000000000000D+00  0.0000000000000D+00
343  3.4200000000000D+00  0.0000000000000D+00  0.0000000000000D+00
344  3.4300000000000D+00  0.0000000000000D+00  0.0000000000000D+00
345  3.4400000000000D+00  0.0000000000000D+00  0.0000000000000D+00
346  3.4500000000000D+00  0.0000000000000D+00  0.0000000000000D+00
347  3.4600000000000D+00  0.0000000000000D+00  0.0000000000000D+00
348  3.4700000000000D+00  0.0000000000000D+00  0.0000000000000D+00
349  3.4800000000000D+00  0.0000000000000D+00  0.0000000000000D+00
350  3.4900000000000D+00  0.0000000000000D+00  0.0000000000000D+00
351  3.5000000000000D+00  0.0000000000000D+00  0.0000000000000D+00
352  3.5100000000000D+00  0.0000000000000D+00  0.0000000000000D+00
353  3.5200000000000D+00  0.0000000000000D+00  0.0000000000000D+00
354  3.5300000000000D+00  0.0000000000000D+00  0.0000000000000D+00
355  3.5400000000000D+00  0.0000000000000D+00  0.0000000000000D+00
356  3.5500000000000D+00  0.0000000000000D+00  0.0000000000000D+00
357  3.5600000000000D+00  0.0000000000000D+00  0.0000000000000D+00
358  3.5700000000000D+00  0.0000000000000D+00  0.0000000000000D+00
359  3.5800000000000D+00  0.0000000000000D+00  0.0000000000000D+00
360  3.5900000000000D+00  0.0000000000000D+00  0.0000000000000D+00
361  3.6000000000000D+00  0.0000000000000D+00  0.0000000000000D+00
362  3.6100000000000D+00  0.0000000000000D+00  0.0000000000000D+00
363  3.6200000000000D+00  0.0000000000000D+00  0.0000000000000D+00
364  3.6300000000000D+00  0.0000000000000D+00  0.0000000000000D+00
365  3.6400000000000D+00  0.0000000000000D+00  0.0000000000000D+00
366  3.6500000000000D+00  0.0000000000000D+00  0.0000000000000D+00
367  3.6600000000000D+00  0.0000000000000D+00  0.0000000000000D+00
368  3.6700000000000D+00  0.0000000000000D+00  0.0000000000000D+00
369  3.6800000000000D+00  0.0000000000000D+00  0.0000000000000D+00
370  3.6900000000000D+00  0.0000000000000D+00  0.0000000000000D+00
371  3.7000000000000D+00  0.0000000000000D+00  0.0000000000000D+00
372  3.7100000000000D+00  0.0000000000000D+00  0.0000000000000D+00
373  3.7200000000000D+00  0.0000000000000D+00  0.0000000000000D+00
374  3.7300000000000D+00  0.0000000000000D+00  0.0000000000000D+00
375  3.7400000000000D+00  0.0000000000000D+00  0.0000000000000D+00
376  3.7500000000000D+00  0.0000000000000D+00  0.0000000000000D+00
377  3.7600000000000D+00  0.0000000000000D+00  0.0000000000000D+00
378  3.7700000000000D+00  0.0000000000000D+00  0.0000000000000D+00
379  3.7800000000000D+00  0.0000000000000D+00  0.0000000000000D+00
380  3.7900000000000D+00  0.0000000000000D+00  0.0000000000000D+00
381  3.8000000000000D+00  0.0000000000000D+00  0.0000000000000D+00
382  3.8100000000000D+00  0.0000000000000D+00  0.0000000000000D+00
383  3.8200000000000D+00  0.0000000000000D+00  0.0000000000000D+00
384  3.8300000000000D+00  0.0000000000000D+00  0.0000000000000D+00
385  3.8400000000000D+00  0.0000000000000D+00  0.0000000000000D+00
386  3.8500000000000D+00  0.0000000000000D+00  0.0000000000000D+00
387  3.8600000000000D+00  0.0000000000000D+00  0.0000000000000D+00
388  3.8700000000000D+00  0.0000000000000D+00  0.0000000000000D+00
389  3.8800000000000D+00  0.0000000000000D+00  0.0000000000000D+00
390  3.8900000000000D+00  0.0000000000000D+00  0.0000000000000D+00
391  3.9000000000000D+00  0.0000000000000D+00  0.0000000000000D+00
392  3.9100000000000D+00  0.0000000000000D+00  0.0000000000000D+00
393  3.9200000000000D+00  0.0000000000000D+00  0.0000000000000D+00
394  3.9300000000000D+00  0.0000000000000D+00  0.0000000000000D+00
395  3.9400000000000D+00  0.0000000000000D+00  0.0000000000000D+00
396  3.9500000000000D+00  0.0000000000000D+00  0.0000000000000D+00
397  3.9600000000000D+00  0.0000000000000D+00  0.0000000000000D+00
398  3.9700000000000D+00  0.0000000000000D+00  0.0000000000000D+00
399  3.9800000000000D+00  0.0000000000000D+00  0.0000000000000D+00
400  3.9900000000000D+00  0.0000000000000D+00  0.0000000000000D+00
401  4.0000000000000D+00  0.0000000000000D+00  0.0000000000000D+00
402  4.0100000000000D+00  0.0000000000000D+00  0.0000000000000D+00
403  4.0200000000000D+00  0.0000000000000D+00  0.0000000000000D+00
404  4.0300000000000D+00  0.0000000000000D+00  0.0000000000000D+00
405  4.0400000000000D+00  0.0000000000000D+00  0.0000000000000D+00
406  4.0500000000000D+00  0.0000000000000D+00  0.0000000000000D+00
407  4.0600000000000D+00  0.0000000000000D+00  0.0000000000000D+00
408  4.0700000000000D+00  0.0000000000000D+00  0.0000000000000D+00
409  4.0800000000000D+00  0.0000000000000D+00  0.0000000000000D+00
410  4.0900000000000D+00  0.0000000000000D+00  0.0000000000000D+00
411  4.1000000000000D+00  0.0000000000000D+00  0.0000000000000D+00
412  4.1100000000000D+00  0.0000000000000D+00  0.0000000000000D+00
413  4.1200000000000D+00  0.0000000000000D+00  0.0000000000000D+00
414  4.1300000000000D+00  0.0000000000000D+00  0.0000000000000D+00
415  4.1400000000000D+00  0.0000000000000D+00  0.0000000000000D+00
416  4.1500000000000D+00  0.0000000000000D+00  0.0000000000000D+00
417  4.1600000000000D+00  0.0000000000000D+00  0.0000000000000D+00
418  4.1700000000000D+00  0.0000000000000D+00  0.0000000000000D+00
419  4.1800000000000D+00  0.0000000000000D+00  0.0000000000000D+00
420  4.1900000000000D+00  0.0000000000000D+00  0.0000000000000D+00
421  4.2000000000000D+00  0.0000000000000D+00  0.0000000000000D+00
422  4.2100000000000D+00  0.0000000000000D+00  0.0000000000000D+00
423  4.2200000000000D+00  0.0000000000000D+00  0.0000000000000D+00
424  4.2300000000000D+00  0.0000000000000D+00  0.0000000000000D+00
425  4.2400000000000D+00  0.0000000000000D+00  0.0000000000000D+00
426  4.2500000000000D+00  0.0000000000000D+00  0.0000000000000D+00
427  4.2600000000000D+00  0.0000000000000D+00  0.0000000000000D+00
428  4.2700000000000D+00  0.0000000000000D+00  0.0000000000000D+00
429  4.2800000000000D+00  0.0000000000000D+00  0.0000000000000D+00
430  4.2900000000000D+00  0.0000000000000D+00  0.0000000000000D+00
431  4.3000000000000D+00  0.0000000000000D+00  0.0000000000000D+00
432  4.3100000000000D+00  0.0000000000000D+00  0.0000000000000D+00
433  4.3200000000000D+00  0.0000000000000D+00  0.0000000000000D+00
434  4.3300000000000D+00  0.0000000000000D+00  0.0000000000000D+00
435  4.3400000000000D+00  0.0000000000000D+00  0.0000000000000D+00
436  4.3500000000000D+00  0.0000000000000D+00  0.0000000000000D+00
437  4.3600000000000D+00  0.0000000000000D+00  0.0000000000000D+00
438  4.3700000000000D+00  0.0000000000000D+00  0.0000000000000D+00
439  4.3800000000000D+00  0.0000000000000D+00  0.0000000000000D+00
440  4.3900000000000D+00  0.0000000000000D+00  0.0000000000000D+00
441  4.4000000000000D+00  0.0000000000000D+00  0.0000000000000D+00
442  4.4100000000000D+00  0.0000000000000D+00  0.0000000000000D+00
443  4.4200000000000D+00  0.0000000000000D+00  0.0000000000000D+00