Cd    ONCVPSP-3.3.0  r_core=   1.25838   1.30423   1.35174
48.0000     20.0000      180430    zatom,zion,pspd
8 -116133   2     4   600     0    pspcod,pspxc,lmax,lloc,mmax,r2well
5.99000000  6.00000000  0.00000000    rchrg fchrg qchrg
2     4     4     0    nproj
3     1           extension_switch
4     4     0    nprojso
0                         3.6451042503052D+00  5.9601404271646D+01
1  0.0000000000000D+00  8.2584067639946D-09 -4.7560609894859D-09
2  1.0000000000000D-02 -2.7274077912896D-02  1.1090724474424D-01
3  2.0000000000000D-02 -5.4083262696547D-02  2.2131282950051D-01
4  3.0000000000000D-02 -7.9969041084638D-02  3.3071943795506D-01
5  4.0000000000000D-02 -1.0448554696011D-01  4.3863837485121D-01
6  5.0000000000000D-02 -1.2720560565568D-01  5.4459371203827D-01
7  6.0000000000000D-02 -1.4772644915221D-01  6.4812624061604D-01
8  7.0000000000000D-02 -1.6567500239571D-01  7.4879717025464D-01
9  8.0000000000000D-02 -1.8071264921179D-01  8.4619152152520D-01
10  9.0000000000000D-02 -1.9253939631954D-01  9.3992116284864D-01
11  1.0000000000000D-01 -2.0089736553948D-01  1.0296274503447D+00
12  1.1000000000000D-01 -2.0557355723247D-01  1.1149834363142D+00
13  1.2000000000000D-01 -2.0640184204655D-01  1.1956956201689D+00
14  1.3000000000000D-01 -2.0326415291703D-01  1.2715052241793D+00
15  1.4000000000000D-01 -1.9609086467387D-01  1.3421889852776D+00
16  1.5000000000000D-01 -1.8486036425976D-01  1.4075594631520D+00
17  1.6000000000000D-01 -1.6959783014952D-01  1.4674648738341D+00
18  1.7000000000000D-01 -1.5037325478015D-01  1.5217884667273D+00
19  1.8000000000000D-01 -1.2729875835388D-01  1.5704474713877D+00
20  1.9000000000000D-01 -1.0052525597722D-01  1.6133916481790D+00
21  2.0000000000000D-01 -7.0238552475869D-02  1.6506014840284D+00
22  2.1000000000000D-01 -3.6654950133357D-02  1.6820860807681D+00
23  2.2000000000000D-01 -1.6463818015240D-05  1.7078807888303D+00
24  2.3000000000000D-01  3.9414254698281D-02  1.7280446432640D+00
25  2.4000000000000D-01  8.1359176120153D-02  1.7426576620789D+00
26  2.5000000000000D-01  1.2553022643834D-01  1.7518180687186D+00
27  2.6000000000000D-01  1.7163458195994D-01  1.7556395009956D+00
28  2.7000000000000D-01  2.1937981666163D-01  1.7542482680555D+00
29  2.8000000000000D-01  2.6847879551716D-01  1.7477807148972D+00
30  2.9000000000000D-01  3.1865421317983D-01  1.7363807506872D+00
31  3.0000000000000D-01  3.6964268521094D-01  1.7201975926339D+00
32  3.1000000000000D-01  4.2119830879318D-01  1.6993837716110D+00
33  3.2000000000000D-01  4.7309562137459D-01  1.6740934391544D+00
34  3.3000000000000D-01  5.2513189873275D-01  1.6444810080145D+00
35  3.4000000000000D-01  5.7712874828564D-01  1.6107001502918D+00
36  3.5000000000000D-01  6.2893296881999D-01  1.5729031684646D+00
37  3.6000000000000D-01  6.8041666386732D-01  1.5312407455133D+00
38  3.7000000000000D-01  7.3147661240675D-01  1.4858620710467D+00
39  3.8000000000000D-01  7.8203291708631D-01  1.4369153310198D+00
40  3.9000000000000D-01  8.3202696639651D-01  1.3845485395080D+00
41  4.0000000000000D-01  8.8141876286515D-01  1.3289106822500D+00
42  4.1000000000000D-01  9.3018368405021D-01  1.2701531334829D+00
43  4.2000000000000D-01  9.7830875656954D-01  1.2084313001480D+00
44  4.3000000000000D-01  1.0257885353428D+00  1.1439064410077D+00
45  4.4000000000000D-01  1.0726206903541D+00  1.0767476027318D+00
46  4.5000000000000D-01  1.1188014113587D+00  1.0071336107234D+00
47  4.6000000000000D-01  1.1643207468392D+00  9.3525504945959D-01
48  4.7000000000000D-01  1.2091579970346D+00  8.6131616551499D-01
49  4.8000000000000D-01  1.2532772818902D+00  7.8553662626673D-01
50  4.9000000000000D-01  1.2966234032637D+00  7.0815306858566D-01
51  5.0000000000000D-01  1.3391181166521D+00  6.2942037459431D-01
52  5.1000000000000D-01  1.3806569211190D+00  5.4961261579596D-01
53  5.2000000000000D-01  1.4211064670991D+00  4.6902361248412D-01
54  5.3000000000000D-01  1.4603026704630D+00  3.8796706225269D-01
55  5.4000000000000D-01  1.4980496078397D+00  3.0677619951909D-01
56  5.5000000000000D-01  1.5341192529675D+00  2.2580295710079D-01
57  5.6000000000000D-01  1.5682520969829D+00  1.4541661091711D-01
58  5.7000000000000D-01  1.6001586775001D+00  6.6001899572993D-02
59  5.8000000000000D-01  1.6295220222450D+00 -1.2043378189768D-02
60  5.9000000000000D-01  1.6560009934661D+00 -8.8311273747001D-02
61  6.0000000000000D-01  1.6792344994940D+00 -1.6238708056520D-01
62  6.1000000000000D-01  1.6988465203359D+00 -2.3385317061507D-01
63  6.2000000000000D-01  1.7144518751402D+00 -3.0229322697516D-01
64  6.3000000000000D-01  1.7256626415085D+00 -3.6729681415537D-01
65  6.4000000000000D-01  1.7320951200028D+00 -4.2846421823114D-01
66  6.5000000000000D-01  1.7333772223907D+00 -4.8541148056458D-01
67  6.6000000000000D-01  1.7291561494756D+00 -5.3777554185779D-01
68  6.7000000000000D-01  1.7191062139336D+00 -5.8521940763952D-01
69  6.8000000000000D-01  1.7029366559019D+00 -6.2743724229214D-01
70  6.9000000000000D-01  1.6803992941695D+00 -6.6415929640310D-01
71  7.0000000000000D-01  1.6512958539348D+00 -6.9515657170359D-01
72  7.1000000000000D-01  1.6154848133318D+00 -7.2024512919066D-01
73  7.2000000000000D-01  1.5728876152956D+00 -7.3928994922409D-01
74  7.3000000000000D-01  1.5234940988646D+00 -7.5220825744843D-01
75  7.4000000000000D-01  1.4673670145087D+00 -7.5897223719825D-01
76  7.5000000000000D-01  1.4046455016195D+00 -7.5961105764530D-01
77  7.6000000000000D-01  1.3355474224123D+00 -7.5421215704430D-01
78  7.7000000000000D-01  1.2603704651363D+00 -7.4292173200471D-01
79  7.8000000000000D-01  1.1794919502546D+00 -7.2594439650839D-01
80  7.9000000000000D-01  1.0933672958086D+00 -7.0354198820553D-01
81  8.0000000000000D-01  1.0025271221183D+00 -6.7603151411176D-01
82  8.1000000000000D-01  9.0757300088421D-01 -6.4378224295092D-01
83  8.2000000000000D-01  8.0917187911178D-01 -6.0721196672145D-01
84  8.3000000000000D-01  7.0804923371459D-01 -5.6678246939173D-01
85  8.4000000000000D-01  6.0498103759967D-01 -5.2299425561527D-01
86  8.5000000000000D-01  5.0078464199946D-01 -4.7638060669930D-01
87  8.6000000000000D-01  3.9630870238566D-01 -4.2750104452420D-01
88  8.7000000000000D-01  2.9242229596192D-01 -3.7693429638748D-01
89  8.8000000000000D-01  1.9000339708209D-01 -3.2527086459558D-01
90  8.9000000000000D-01  8.9926892577236D-02 -2.7310531381557D-01
91  9.0000000000000D-01 -6.9476684358430D-03 -2.2102839652815D-01
92  9.1000000000000D-01 -9.9788386492801D-02 -1.6961914219572D-01
93  9.2000000000000D-01 -1.8780317601429D-01 -1.1943703889887D-01
94  9.3000000000000D-01 -2.7025157052739D-01 -7.1014437022927D-02
95  9.4000000000000D-01 -3.4645595954813D-01 -2.4849303097254D-02
96  9.5000000000000D-01 -4.1581205367149D-01  1.8601551934339D-02
97  9.6000000000000D-01 -4.7779838414489D-01  5.8928651870398D-02
98  9.7000000000000D-01 -5.3198465666551D-01  9.5775332070100D-02
99  9.8000000000000D-01 -5.7803879615652D-01  1.2884241466494D-01
100  9.9000000000000D-01 -6.1573253949485D-01  1.5789199530500D-01
101  1.0000000000000D+00 -6.4494545691382D-01  1.8275026909978D-01
102  1.0100000000000D+00 -6.6566730766642D-01  2.0330933857193D-01
103  1.0200000000000D+00 -6.7799866450889D-01  2.1952796406575D-01
104  1.0300000000000D+00 -6.8214977088457D-01  2.3143123485079D-01
105  1.0400000000000D+00 -6.7843762540861D-01  2.3910915778135D-01
106  1.0500000000000D+00 -6.6728131959039D-01  2.4271417934213D-01
107  1.0600000000000D+00 -6.4919568741592D-01  2.4245767666867D-01
108  1.0700000000000D+00 -6.2478335315149D-01  2.3860546988674D-01
109  1.0800000000000D+00 -5.9472529749216D-01  2.3147242848586D-01
110  1.0900000000000D+00 -5.5977008769409D-01  2.2141625982033D-01
111  1.1000000000000D+00 -5.2072194417546D-01  2.0883058400076D-01
112  1.1100000000000D+00 -4.7842783942815D-01  1.9413741349201D-01
113  1.1200000000000D+00 -4.3376384353087D-01  1.7777916682702D-01
114  1.1300000000000D+00 -3.8762095036503D-01  1.6021035773974D-01
115  1.1400000000000D+00 -3.4089062863968D-01  1.4188910701493D-01
116  1.1500000000000D+00 -2.9445035083795D-01  1.2326862973411D-01
117  1.1600000000000D+00 -2.4914935829236D-01  1.0478885363643D-01
118  1.1700000000000D+00 -2.0579492050809D-01  8.6868324207738D-02
119  1.1800000000000D+00 -1.6513934075702D-01  6.9896548414254D-02
120  1.1900000000000D+00 -1.2786795113545D-01  5.4226923647913D-02
121  1.2000000000000D+00 -9.4588330757548D-02  4.0170392689685D-02
122  1.2100000000000D+00 -6.5820958329328D-02  2.7989951967375D-02
123  1.2200000000000D+00 -4.2005382365402D-02  1.7902208496984D-02
124  1.2300000000000D+00 -2.3401519130816D-02  1.0032970621998D-02
125  1.2400000000000D+00 -1.0263010892720D-02  4.4932784517354D-03
126  1.2500000000000D+00 -3.1933682218228D-03  1.5462143441530D-03
127  1.2600000000000D+00 -6.5948550341803D-04  4.5469604520041D-04
128  1.2700000000000D+00 -3.6695939168199D-05  5.6977316943015D-05
129  1.2800000000000D+00 -9.2612755039795D-07 -2.0529167347696D-05
130  1.2900000000000D+00 -1.4901324093022D-06  2.0638312520349D-06
131  1.3000000000000D+00 -2.2913284321021D-06  4.2264685461155D-06
132  1.3100000000000D+00  2.4131889302618D-06 -1.5352239122792D-06
133  1.3200000000000D+00  0.0000000000000D+00  0.0000000000000D+00
134  1.3300000000000D+00  0.0000000000000D+00  0.0000000000000D+00
135  1.3400000000000D+00  0.0000000000000D+00  0.0000000000000D+00
136  1.3500000000000D+00  0.0000000000000D+00  0.0000000000000D+00
137  1.3600000000000D+00  0.0000000000000D+00  0.0000000000000D+00
138  1.3700000000000D+00  0.0000000000000D+00  0.0000000000000D+00
139  1.3800000000000D+00  0.0000000000000D+00  0.0000000000000D+00
140  1.3900000000000D+00  0.0000000000000D+00  0.0000000000000D+00
141  1.4000000000000D+00  0.0000000000000D+00  0.0000000000000D+00
142  1.4100000000000D+00  0.0000000000000D+00  0.0000000000000D+00
143  1.4200000000000D+00  0.0000000000000D+00  0.0000000000000D+00
144  1.4300000000000D+00  0.0000000000000D+00  0.0000000000000D+00
145  1.4400000000000D+00  0.0000000000000D+00  0.0000000000000D+00
146  1.4500000000000D+00  0.0000000000000D+00  0.0000000000000D+00
147  1.4600000000000D+00  0.0000000000000D+00  0.0000000000000D+00
148  1.4700000000000D+00  0.0000000000000D+00  0.0000000000000D+00
149  1.4800000000000D+00  0.0000000000000D+00  0.0000000000000D+00
150  1.4900000000000D+00  0.0000000000000D+00  0.0000000000000D+00
151  1.5000000000000D+00  0.0000000000000D+00  0.0000000000000D+00
152  1.5100000000000D+00  0.0000000000000D+00  0.0000000000000D+00
153  1.5200000000000D+00  0.0000000000000D+00  0.0000000000000D+00
154  1.5300000000000D+00  0.0000000000000D+00  0.0000000000000D+00
155  1.5400000000000D+00  0.0000000000000D+00  0.0000000000000D+00
156  1.5500000000000D+00  0.0000000000000D+00  0.0000000000000D+00
157  1.5600000000000D+00  0.0000000000000D+00  0.0000000000000D+00
158  1.5700000000000D+00  0.0000000000000D+00  0.0000000000000D+00
159  1.5800000000000D+00  0.0000000000000D+00  0.0000000000000D+00
160  1.5900000000000D+00  0.0000000000000D+00  0.0000000000000D+00
161  1.6000000000000D+00  0.0000000000000D+00  0.0000000000000D+00
162  1.6100000000000D+00  0.0000000000000D+00  0.0000000000000D+00
163  1.6200000000000D+00  0.0000000000000D+00  0.0000000000000D+00
164  1.6300000000000D+00  0.0000000000000D+00  0.0000000000000D+00
165  1.6400000000000D+00  0.0000000000000D+00  0.0000000000000D+00
166  1.6500000000000D+00  0.0000000000000D+00  0.0000000000000D+00
167  1.6600000000000D+00  0.0000000000000D+00  0.0000000000000D+00
168  1.6700000000000D+00  0.0000000000000D+00  0.0000000000000D+00
169  1.6800000000000D+00  0.0000000000000D+00  0.0000000000000D+00
170  1.6900000000000D+00  0.0000000000000D+00  0.0000000000000D+00
171  1.7000000000000D+00  0.0000000000000D+00  0.0000000000000D+00
172  1.7100000000000D+00  0.0000000000000D+00  0.0000000000000D+00
173  1.7200000000000D+00  0.0000000000000D+00  0.0000000000000D+00
174  1.7300000000000D+00  0.0000000000000D+00  0.0000000000000D+00
175  1.7400000000000D+00  0.0000000000000D+00  0.0000000000000D+00
176  1.7500000000000D+00  0.0000000000000D+00  0.0000000000000D+00
177  1.7600000000000D+00  0.0000000000000D+00  0.0000000000000D+00
178  1.7700000000000D+00  0.0000000000000D+00  0.0000000000000D+00
179  1.7800000000000D+00  0.0000000000000D+00  0.0000000000000D+00
180  1.7900000000000D+00  0.0000000000000D+00  0.0000000000000D+00
181  1.8000000000000D+00  0.0000000000000D+00  0.0000000000000D+00
182  1.8100000000000D+00  0.0000000000000D+00  0.0000000000000D+00
183  1.8200000000000D+00  0.0000000000000D+00  0.0000000000000D+00
184  1.8300000000000D+00  0.0000000000000D+00  0.0000000000000D+00
185  1.8400000000000D+00  0.0000000000000D+00  0.0000000000000D+00
186  1.8500000000000D+00  0.0000000000000D+00  0.0000000000000D+00
187  1.8600000000000D+00  0.0000000000000D+00  0.0000000000000D+00
188  1.8700000000000D+00  0.0000000000000D+00  0.0000000000000D+00
189  1.8800000000000D+00  0.0000000000000D+00  0.0000000000000D+00
190  1.8900000000000D+00  0.0000000000000D+00  0.0000000000000D+00
191  1.9000000000000D+00  0.0000000000000D+00  0.0000000000000D+00
192  1.9100000000000D+00  0.0000000000000D+00  0.0000000000000D+00
193  1.9200000000000D+00  0.0000000000000D+00  0.0000000000000D+00
194  1.9300000000000D+00  0.0000000000000D+00  0.0000000000000D+00
195  1.9400000000000D+00  0.0000000000000D+00  0.0000000000000D+00
196  1.9500000000000D+00  0.0000000000000D+00  0.0000000000000D+00
197  1.9600000000000D+00  0.0000000000000D+00  0.0000000000000D+00
198  1.9700000000000D+00  0.0000000000000D+00  0.0000000000000D+00
199  1.9800000000000D+00  0.0000000000000D+00  0.0000000000000D+00
200  1.9900000000000D+00  0.0000000000000D+00  0.0000000000000D+00
201  2.0000000000000D+00  0.0000000000000D+00  0.0000000000000D+00
202  2.0100000000000D+00  0.0000000000000D+00  0.0000000000000D+00
203  2.0200000000000D+00  0.0000000000000D+00  0.0000000000000D+00
204  2.0300000000000D+00  0.0000000000000D+00  0.0000000000000D+00
205  2.0400000000000D+00  0.0000000000000D+00  0.0000000000000D+00
206  2.0500000000000D+00  0.0000000000000D+00  0.0000000000000D+00
207  2.0600000000000D+00  0.0000000000000D+00  0.0000000000000D+00
208  2.0700000000000D+00  0.0000000000000D+00  0.0000000000000D+00
209  2.0800000000000D+00  0.0000000000000D+00  0.0000000000000D+00
210  2.0900000000000D+00  0.0000000000000D+00  0.0000000000000D+00
211  2.1000000000000D+00  0.0000000000000D+00  0.0000000000000D+00
212  2.1100000000000D+00  0.0000000000000D+00  0.0000000000000D+00
213  2.1200000000000D+00  0.0000000000000D+00  0.0000000000000D+00
214  2.1300000000000D+00  0.0000000000000D+00  0.0000000000000D+00
215  2.1400000000000D+00  0.0000000000000D+00  0.0000000000000D+00
216  2.1500000000000D+00  0.0000000000000D+00  0.0000000000000D+00
217  2.1600000000000D+00  0.0000000000000D+00  0.0000000000000D+00
218  2.1700000000000D+00  0.0000000000000D+00  0.0000000000000D+00
219  2.1800000000000D+00  0.0000000000000D+00  0.0000000000000D+00
220  2.1900000000000D+00  0.0000000000000D+00  0.0000000000000D+00
221  2.2000000000000D+00  0.0000000000000D+00  0.0000000000000D+00
222  2.2100000000000D+00  0.0000000000000D+00  0.0000000000000D+00
223  2.2200000000000D+00  0.0000000000000D+00  0.0000000000000D+00
224  2.2300000000000D+00  0.0000000000000D+00  0.0000000000000D+00
225  2.2400000000000D+00  0.0000000000000D+00  0.0000000000000D+00
226  2.2500000000000D+00  0.0000000000000D+00  0.0000000000000D+00
227  2.2600000000000D+00  0.0000000000000D+00  0.0000000000000D+00
228  2.2700000000000D+00  0.0000000000000D+00  0.0000000000000D+00
229  2.2800000000000D+00  0.0000000000000D+00  0.0000000000000D+00
230  2.2900000000000D+00  0.0000000000000D+00  0.0000000000000D+00
231  2.3000000000000D+00  0.0000000000000D+00  0.0000000000000D+00
232  2.3100000000000D+00  0.0000000000000D+00  0.0000000000000D+00
233  2.3200000000000D+00  0.0000000000000D+00  0.0000000000000D+00
234  2.3300000000000D+00  0.0000000000000D+00  0.0000000000000D+00
235  2.3400000000000D+00  0.0000000000000D+00  0.0000000000000D+00
236  2.3500000000000D+00  0.0000000000000D+00  0.0000000000000D+00
237  2.3600000000000D+00  0.0000000000000D+00  0.0000000000000D+00
238  2.3700000000000D+00  0.0000000000000D+00  0.0000000000000D+00
239  2.3800000000000D+00  0.0000000000000D+00  0.0000000000000D+00
240  2.3900000000000D+00  0.0000000000000D+00  0.0000000000000D+00
241  2.4000000000000D+00  0.0000000000000D+00  0.0000000000000D+00
242  2.4100000000000D+00  0.0000000000000D+00  0.0000000000000D+00
243  2.4200000000000D+00  0.0000000000000D+00  0.0000000000000D+00
244  2.4300000000000D+00  0.0000000000000D+00  0.0000000000000D+00
245  2.4400000000000D+00  0.0000000000000D+00  0.0000000000000D+00
246  2.4500000000000D+00  0.0000000000000D+00  0.0000000000000D+00
247  2.4600000000000D+00  0.0000000000000D+00  0.0000000000000D+00
248  2.4700000000000D+00  0.0000000000000D+00  0.0000000000000D+00
249  2.4800000000000D+00  0.0000000000000D+00  0.0000000000000D+00
250  2.4900000000000D+00  0.0000000000000D+00  0.0000000000000D+00
251  2.5000000000000D+00  0.0000000000000D+00  0.0000000000000D+00
252  2.5100000000000D+00  0.0000000000000D+00  0.0000000000000D+00
253  2.5200000000000D+00  0.0000000000000D+00  0.0000000000000D+00
254  2.5300000000000D+00  0.0000000000000D+00  0.0000000000000D+00
255  2.5400000000000D+00  0.0000000000000D+00  0.0000000000000D+00
256  2.5500000000000D+00  0.0000000000000D+00  0.0000000000000D+00
257  2.5600000000000D+00  0.0000000000000D+00  0.0000000000000D+00
258  2.5700000000000D+00  0.0000000000000D+00  0.0000000000000D+00
259  2.5800000000000D+00  0.0000000000000D+00  0.0000000000000D+00
260  2.5900000000000D+00  0.0000000000000D+00  0.0000000000000D+00
261  2.6000000000000D+00  0.0000000000000D+00  0.0000000000000D+00
262  2.6100000000000D+00  0.0000000000000D+00  0.0000000000000D+00
263  2.6200000000000D+00  0.0000000000000D+00  0.0000000000000D+00
264  2.6300000000000D+00  0.0000000000000D+00  0.0000000000000D+00
265  2.6400000000000D+00  0.0000000000000D+00  0.0000000000000D+00
266  2.6500000000000D+00  0.0000000000000D+00  0.0000000000000D+00
267  2.6600000000000D+00  0.0000000000000D+00  0.0000000000000D+00
268  2.6700000000000D+00  0.0000000000000D+00  0.0000000000000D+00
269  2.6800000000000D+00  0.0000000000000D+00  0.0000000000000D+00
270  2.6900000000000D+00  0.0000000000000D+00  0.0000000000000D+00
271  2.7000000000000D+00  0.0000000000000D+00  0.0000000000000D+00
272  2.7100000000000D+00  0.0000000000000D+00  0.0000000000000D+00
273  2.7200000000000D+00  0.0000000000000D+00  0.0000000000000D+00
274  2.7300000000000D+00  0.0000000000000D+00  0.0000000000000D+00
275  2.7400000000000D+00  0.0000000000000D+00  0.0000000000000D+00
276  2.7500000000000D+00  0.0000000000000D+00  0.0000000000000D+00
277  2.7600000000000D+00  0.0000000000000D+00  0.0000000000000D+00
278  2.7700000000000D+00  0.0000000000000D+00  0.0000000000000D+00
279  2.7800000000000D+00  0.0000000000000D+00  0.0000000000000D+00
280  2.7900000000000D+00  0.0000000000000D+00  0.0000000000000D+00
281  2.8000000000000D+00  0.0000000000000D+00  0.0000000000000D+00
282  2.8100000000000D+00  0.0000000000000D+00  0.0000000000000D+00
283  2.8200000000000D+00  0.0000000000000D+00  0.0000000000000D+00
284  2.8300000000000D+00  0.0000000000000D+00  0.0000000000000D+00
285  2.8400000000000D+00  0.0000000000000D+00  0.0000000000000D+00
286  2.8500000000000D+00  0.0000000000000D+00  0.0000000000000D+00
287  2.8600000000000D+00  0.0000000000000D+00  0.0000000000000D+00
288  2.8700000000000D+00  0.0000000000000D+00  0.0000000000000D+00
289  2.8800000000000D+00  0.0000000000000D+00  0.0000000000000D+00
290  2.8900000000000D+00  0.0000000000000D+00  0.0000000000000D+00
291  2.9000000000000D+00  0.0000000000000D+00  0.0000000000000D+00
292  2.9100000000000D+00  0.0000000000000D+00  0.0000000000000D+00
293  2.9200000000000D+00  0.0000000000000D+00  0.0000000000000D+00
294  2.9300000000000D+00  0.0000000000000D+00  0.0000000000000D+00
295  2.9400000000000D+00  0.0000000000000D+00  0.0000000000000D+00
296  2.9500000000000D+00  0.0000000000000D+00  0.0000000000000D+00
297  2.9600000000000D+00  0.0000000000000D+00  0.0000000000000D+00
298  2.9700000000000D+00  0.0000000000000D+00  0.0000000000000D+00
299  2.9800000000000D+00  0.0000000000000D+00  0.0000000000000D+00
300  2.9900000000000D+00  0.0000000000000D+00  0.0000000000000D+00
301  3.0000000000000D+00  0.0000000000000D+00  0.0000000000000D+00
302  3.0100000000000D+00  0.0000000000000D+00  0.0000000000000D+00
303  3.0200000000000D+00  0.0000000000000D+00  0.0000000000000D+00
304  3.0300000000000D+00  0.0000000000000D+00  0.0000000000000D+00
305  3.0400000000000D+00  0.0000000000000D+00  0.0000000000000D+00
306  3.0500000000000D+00  0.0000000000000D+00  0.0000000000000D+00
307  3.0600000000000D+00  0.0000000000000D+00  0.0000000000000D+00
308  3.0700000000000D+00  0.0000000000000D+00  0.0000000000000D+00
309  3.0800000000000D+00  0.0000000000000D+00  0.0000000000000D+00
310  3.0900000000000D+00  0.0000000000000D+00  0.0000000000000D+00
311  3.1000000000000D+00  0.0000000000000D+00  0.0000000000000D+00
312  3.1100000000000D+00  0.0000000000000D+00  0.0000000000000D+00
313  3.1200000000000D+00  0.0000000000000D+00  0.0000000000000D+00
314  3.1300000000000D+00  0.0000000000000D+00  0.0000000000000D+00
315  3.1400000000000D+00  0.0000000000000D+00  0.0000000000000D+00
316  3.1500000000000D+00  0.0000000000000D+00  0.0000000000000D+00
317  3.1600000000000D+00  0.0000000000000D+00  0.0000000000000D+00
318  3.1700000000000D+00  0.0000000000000D+00  0.0000000000000D+00
319  3.1800000000000D+00  0.0000000000000D+00  0.0000000000000D+00
320  3.1900000000000D+00  0.0000000000000D+00  0.0000000000000D+00
321  3.2000000000000D+00  0.0000000000000D+00  0.0000000000000D+00
322  3.2100000000000D+00  0.0000000000000D+00  0.0000000000000D+00
323  3.2200000000000D+00  0.0000000000000D+00  0.0000000000000D+00
324  3.2300000000000D+00  0.0000000000000D+00  0.0000000000000D+00
325  3.2400000000000D+00  0.0000000000000D+00  0.0000000000000D+00
326  3.2500000000000D+00  0.0000000000000D+00  0.0000000000000D+00
327  3.2600000000000D+00  0.0000000000000D+00  0.0000000000000D+00
328  3.2700000000000D+00  0.0000000000000D+00  0.0000000000000D+00
329  3.2800000000000D+00  0.0000000000000D+00  0.0000000000000D+00
330  3.2900000000000D+00  0.0000000000000D+00  0.0000000000000D+00
331  3.3000000000000D+00  0.0000000000000D+00  0.0000000000000D+00
332  3.3100000000000D+00  0.0000000000000D+00  0.0000000000000D+00
333  3.3200000000000D+00  0.0000000000000D+00  0.0000000000000D+00
334  3.3300000000000D+00  0.0000000000000D+00  0.0000000000000D+00
335  3.3400000000000D+00  0.0000000000000D+00  0.0000000000000D+00
336  3.3500000000000D+00  0.0000000000000D+00  0.0000000000000D+00
337  3.3600000000000D+00  0.0000000000000D+00  0.0000000000000D+00
338  3.3700000000000D+00  0.0000000000000D+00  0.0000000000000D+00
339  3.3800000000000D+00  0.0000000000000D+00  0.0000000000000D+00
340  3.3900000000000D+00  0.0000000000000D+00  0.0000000000000D+00
341  3.4000000000000D+00  0.0000000000000D+00  0.0000000000000D+00
342  3.4100000000000D+00  0.0000000000000D+00  0.0000000000000D+00
343  3.4200000000000D+00  0.0000000000000D+00  0.0000000000000D+00
344  3.4300000000000D+00  0.0000000000000D+00  0.0000000000000D+00
345  3.4400000000000D+00  0.0000000000000D+00  0.0000000000000D+00
346  3.4500000000000D+00  0.0000000000000D+00  0.0000000000000D+00
347  3.4600000000000D+00  0.0000000000000D+00  0.0000000000000D+00
348  3.4700000000000D+00  0.0000000000000D+00  0.0000000000000D+00
349  3.4800000000000D+00  0.0000000000000D+00  0.0000000000000D+00
350  3.4900000000000D+00  0.0000000000000D+00  0.0000000000000D+00
351  3.5000000000000D+00  0.0000000000000D+00  0.0000000000000D+00
352  3.5100000000000D+00  0.0000000000000D+00  0.0000000000000D+00
353  3.5200000000000D+00  0.0000000000000D+00  0.0000000000000D+00
354  3.5300000000000D+00  0.0000000000000D+00  0.0000000000000D+00
355  3.5400000000000D+00  0.0000000000000D+00  0.0000000000000D+00
356  3.5500000000000D+00  0.0000000000000D+00  0.0000000000000D+00
357  3.5600000000000D+00  0.0000000000000D+00  0.0000000000000D+00
358  3.5700000000000D+00  0.0000000000000D+00  0.0000000000000D+00
359  3.5800000000000D+00  0.0000000000000D+00  0.0000000000000D+00
360  3.5900000000000D+00  0.0000000000000D+00  0.0000000000000D+00
361  3.6000000000000D+00  0.0000000000000D+00  0.0000000000000D+00
362  3.6100000000000D+00  0.0000000000000D+00  0.0000000000000D+00
363  3.6200000000000D+00  0.0000000000000D+00  0.0000000000000D+00
364  3.6300000000000D+00  0.0000000000000D+00  0.0000000000000D+00
365  3.6400000000000D+00  0.0000000000000D+00  0.0000000000000D+00
366  3.6500000000000D+00  0.0000000000000D+00  0.0000000000000D+00
367  3.6600000000000D+00  0.0000000000000D+00  0.0000000000000D+00
368  3.6700000000000D+00  0.0000000000000D+00  0.0000000000000D+00
369  3.6800000000000D+00  0.0000000000000D+00  0.0000000000000D+00
370  3.6900000000000D+00  0.0000000000000D+00  0.0000000000000D+00
371  3.7000000000000D+00  0.0000000000000D+00  0.0000000000000D+00
372  3.7100000000000D+00  0.0000000000000D+00  0.0000000000000D+00
373  3.7200000000000D+00  0.0000000000000D+00  0.0000000000000D+00
374  3.7300000000000D+00  0.0000000000000D+00  0.0000000000000D+00
375  3.7400000000000D+00  0.0000000000000D+00  0.0000000000000D+00
376  3.7500000000000D+00  0.0000000000000D+00  0.0000000000000D+00
377  3.7600000000000D+00  0.0000000000000D+00  0.0000000000000D+00
378  3.7700000000000D+00  0.0000000000000D+00  0.0000000000000D+00
379  3.7800000000000D+00  0.0000000000000D+00  0.0000000000000D+00
380  3.7900000000000D+00  0.0000000000000D+00  0.0000000000000D+00
381  3.8000000000000D+00  0.0000000000000D+00  0.0000000000000D+00
382  3.8100000000000D+00  0.0000000000000D+00  0.0000000000000D+00
383  3.8200000000000D+00  0.0000000000000D+00  0.0000000000000D+00
384  3.8300000000000D+00  0.0000000000000D+00  0.0000000000000D+00
385  3.8400000000000D+00  0.0000000000000D+00  0.0000000000000D+00
386  3.8500000000000D+00  0.0000000000000D+00  0.0000000000000D+00
387  3.8600000000000D+00  0.0000000000000D+00  0.0000000000000D+00
388  3.8700000000000D+00  0.0000000000000D+00  0.0000000000000D+00
389  3.8800000000000D+00  0.0000000000000D+00  0.0000000000000D+00
390  3.8900000000000D+00  0.0000000000000D+00  0.0000000000000D+00
391  3.9000000000000D+00  0.0000000000000D+00  0.0000000000000D+00
392  3.9100000000000D+00  0.0000000000000D+00  0.0000000000000D+00
393  3.9200000000000D+00  0.0000000000000D+00  0.0000000000000D+00
394  3.9300000000000D+00  0.0000000000000D+00  0.0000000000000D+00
395  3.9400000000000D+00  0.0000000000000D+00  0.0000000000000D+00
396  3.9500000000000D+00  0.0000000000000D+00  0.0000000000000D+00
397  3.9600000000000D+00  0.0000000000000D+00  0.0000000000000D+00
398  3.9700000000000D+00  0.0000000000000D+00  0.0000000000000D+00
399  3.9800000000000D+00  0.0000000000000D+00  0.0000000000000D+00
400  3.9900000000000D+00  0.0000000000000D+00  0.0000000000000D+00
401  4.0000000000000D+00  0.0000000000000D+00  0.0000000000000D+00
402  4.0100000000000D+00  0.0000000000000D+00  0.0000000000000D+00
403  4.0200000000000D+00  0.0000000000000D+00  0.0000000000000D+00
404  4.0300000000000D+00  0.0000000000000D+00  0.0000000000000D+00
405  4.0400000000000D+00  0.0000000000000D+00  0.0000000000000D+00
406  4.0500000000000D+00  0.0000000000000D+00  0.0000000000000D+00
407  4.0600000000000D+00  0.0000000000000D+00  0.0000000000000D+00
408  4.0700000000000D+00  0.0000000000000D+00  0.0000000000000D+00
409  4.0800000000000D+00  0.0000000000000D+00  0.0000000000000D+00
410  4.0900000000000D+00  0.0000000000000D+00  0.0000000000000D+00
411  4.1000000000000D+00  0.0000000000000D+00  0.0000000000000D+00
412  4.1100000000000D+00  0.0000000000000D+00  0.0000000000000D+00
413  4.1200000000000D+00  0.0000000000000D+00  0.0000000000000D+00
414  4.1300000000000D+00  0.0000000000000D+00  0.0000000000000D+00
415  4.1400000000000D+00  0.0000000000000D+00  0.0000000000000D+00
416  4.1500000000000D+00  0.0000000000000D+00  0.0000000000000D+00
417  4.1600000000000D+00  0.0000000000000D+00  0.0000000000000D+00
418  4.1700000000000D+00  0.0000000000000D+00  0.0000000000000D+00
419  4.1800000000000D+00  0.0000000000000D+00  0.0000000000000D+00
420  4.1900000000000D+00  0.0000000000000D+00  0.0000000000000D+00
421  4.2000000000000D+00  0.0000000000000D+00  0.0000000000000D+00
422  4.2100000000000D+00  0.0000000000000D+00  0.0000000000000D+00
423  4.2200000000000D+00  0.0000000000000D+00  0.0000000000000D+00
424  4.2300000000000D+00  0.0000000000000D+00  0.0000000000000D+00
425  4.2400000000000D+00  0.0000000000000D+00  0.0000000000000D+00
426  4.2500000000000D+00  0.0000000000000D+00  0.0000000000000D+00
427  4.2600000000000D+00  0.0000000000000D+00  0.0000000000000D+00
428  4.2700000000000D+00  0.0000000000000D+00  0.0000000000000D+00
429  4.2800000000000D+00  0.0000000000000D+00  0.0000000000000D+00
430  4.2900000000000D+00  0.0000000000000D+00  0.0000000000000D+00
431  4.3000000000000D+00  0.0000000000000D+00  0.0000000000000D+00
432  4.3100000000000D+00  0.0000000000000D+00  0.0000000000000D+00
433  4.3200000000000D+00  0.0000000000000D+00  0.0000000000000D+00
434  4.3300000000000D+00  0.0000000000000D+00  0.0000000000000D+00
435  4.3400000000000D+00  0.0000000000000D+00  0.0000000000000D+00
436  4.3500000000000D+00  0.0000000000000D+00  0.0000000000000D+00
437  4.3600000000000D+00  0.0000000000000D+00  0.0000000000000D+00
438  4.3700000000000D+00  0.0000000000000D+00  0.0000000000000D+00
439  4.3800000000000D+00  0.0000000000000D+00  0.0000000000000D+00
440  4.3900000000000D+00  0.0000000000000D+00  0.0000000000000D+00
441  4.4000000000000D+00  0.0000000000000D+00  0.0000000000000D+00
442  4.4100000000000D+00  0.0000000000000D+00  0.0000000000000D+00
443  4.4200000000000D+00  0.0000000000000D+00  0.0000000000000D+00