Cl    ONCVPSP-3.3.0  r_core=   1.56009   1.35202   1.75774
17.0000      7.0000      180503    zatom,zion,pspd
8 -116133   2     4   600     0    pspcod,pspxc,lmax,lloc,mmax,r2well
5.99000000  8.00000000  0.00000000    rchrg fchrg qchrg
2     3     2     0    nproj
3     1           extension_switch
3     4     0    nprojso
0                         7.0779980023057D-01  8.1931552400432D+00
1  0.0000000000000D+00 -2.7984006500947D-09  4.7559772786698D-10
2  1.0000000000000D-02 -1.7944372039869D-02  4.6458752282052D-02
3  2.0000000000000D-02 -3.5959067343670D-02  9.2892670399116D-02
4  3.0000000000000D-02 -5.4112094973215D-02  1.3927651316748D-01
5  4.0000000000000D-02 -7.2466877752810D-02  1.8558423285727D-01
6  5.0000000000000D-02 -9.1080063836818D-02  2.3178859052347D-01
7  6.0000000000000D-02 -1.0999946186793D-01  2.7786079331684D-01
8  7.0000000000000D-02 -1.2926213757202D-01  3.2377016053215D-01
9  8.0000000000000D-02 -1.4889270683722D-01  3.6948382467563D-01
10  9.0000000000000D-02 -1.6890185691738D-01  4.1496647325424D-01
11  1.0000000000000D-01 -1.8928512344264D-01  4.6018013631516D-01
12  1.1000000000000D-01 -2.1002194647915D-01  5.0508402400762D-01
13  1.2000000000000D-01 -2.3107502403276D-01  5.4963441761154D-01
14  1.3000000000000D-01 -2.5238997622068D-01  5.9378461659356D-01
15  1.4000000000000D-01 -2.7389532792917D-01  6.3748494332537D-01
16  1.5000000000000D-01 -2.9550281222717D-01  6.8068280614602D-01
17  1.6000000000000D-01 -3.1710799121104D-01  7.2332282048751D-01
18  1.7000000000000D-01 -3.3859118540997D-01  7.6534698682397D-01
19  1.8000000000000D-01 -3.5981869748115D-01  8.0669492326885D-01
20  1.9000000000000D-01 -3.8064431076168D-01  8.4730414974399D-01
21  2.0000000000000D-01 -4.0091103840958D-01  8.8711041979667D-01
22  2.1000000000000D-01 -4.2045309444289D-01  9.2604809535840D-01
23  2.2000000000000D-01 -4.3909805405120D-01  9.6405055903596D-01
24  2.3000000000000D-01 -4.5666916717635D-01  1.0010506579127D+00
25  2.4000000000000D-01 -4.7298778659761D-01  1.0369811723262D+00
26  2.5000000000000D-01 -4.8787586966135D-01  1.0717753026860D+00
27  2.6000000000000D-01 -5.0115851140218D-01  1.1053671671081D+00
28  2.7000000000000D-01 -5.1266646613849D-01  1.1376923024784D+00
29  2.8000000000000D-01 -5.2223861470330D-01  1.1686881615130D+00
30  2.9000000000000D-01 -5.2972433529110D-01  1.1982945984660D+00
31  3.0000000000000D-01 -5.3498573745159D-01  1.2264543363383D+00
32  3.1000000000000D-01 -5.3789972101631D-01  1.2531134087660D+00
33  3.2000000000000D-01 -5.3835982466763D-01  1.2782215701998D+00
34  3.3000000000000D-01 -5.3627783240188D-01  1.3017326685317D+00
35  3.4000000000000D-01 -5.3158511024133D-01  1.3236049749630D+00
36  3.5000000000000D-01 -5.2423365014257D-01  1.3438014666317D+00
37  3.6000000000000D-01 -5.1419680305422D-01  1.3622900583154D+00
38  3.7000000000000D-01 -5.0146968841033D-01  1.3790437803829D+00
39  3.8000000000000D-01 -4.8606927291296D-01  1.3940409010699D+00
40  3.9000000000000D-01 -4.6803411716674D-01  1.4072649920852D+00
41  4.0000000000000D-01 -4.4742379447703D-01  1.4187049375013D+00
42  4.1000000000000D-01 -4.2431799181471D-01  1.4283548868215D+00
43  4.2000000000000D-01 -3.9881530848406D-01  1.4362141540439D+00
44  4.3000000000000D-01 -3.7103177330955D-01  1.4422870654275D+00
45  4.4000000000000D-01 -3.4109910608948D-01  1.4465827595062D+00
46  4.5000000000000D-01 -3.0916275356214D-01  1.4491149436690D+00
47  4.6000000000000D-01 -2.7537973411332D-01  1.4499016123215D+00
48  4.7000000000000D-01 -2.3991632885130D-01  1.4489647322480D+00
49  4.8000000000000D-01 -2.0294565942456D-01  1.4463299012990D+00
50  4.9000000000000D-01 -1.6464519500800D-01  1.4420259869225D+00
51  5.0000000000000D-01 -1.2519423219609D-01  1.4360847513382D+00
52  5.1000000000000D-01 -8.4771392089867D-02  1.4285404703081D+00
53  5.2000000000000D-01 -4.3552178636233D-02  1.4194295524891D+00
54  5.3000000000000D-01 -1.7066412709300D-03  1.4087901662623D+00
55  5.4000000000000D-01  4.0602816853856D-02  1.3966618807147D+00
56  5.5000000000000D-01  8.3223446280128D-02  1.3830853271116D+00
57  5.6000000000000D-01  1.2601393872638D-01  1.3681018867475D+00
58  5.7000000000000D-01  1.6884596291327D-01  1.3517534105037D+00
59  5.8000000000000D-01  2.1160542144701D-01  1.3340819747836D+00
60  5.9000000000000D-01  2.5419340639466D-01  1.3151296777581D+00
61  6.0000000000000D-01  2.9652683656561D-01  1.2949384790322D+00
62  6.1000000000000D-01  3.3853876517840D-01  1.2735500849773D+00
63  6.2000000000000D-01  3.8017835254839D-01  1.2510058810475D+00
64  6.3000000000000D-01  4.2141050445877D-01  1.2273469114611D+00
65  6.4000000000000D-01  4.6221518298091D-01  1.2026139056649D+00
66  6.5000000000000D-01  5.0258640251413D-01  1.1768473500530D+00
67  6.6000000000000D-01  5.4253092961058D-01  1.1500876024843D+00
68  6.7000000000000D-01  5.8206671070859D-01  1.1223750462539D+00
69  6.8000000000000D-01  6.2122105702129D-01  1.0937502793418D+00
70  6.9000000000000D-01  6.6002862048634D-01  1.0642543340033D+00
71  7.0000000000000D-01  6.9852919878104D-01  1.0339289210891D+00
72  7.1000000000000D-01  7.3676541085874D-01  1.0028166929009D+00
73  7.2000000000000D-01  7.7478028720167D-01  9.7096151792440D-01
74  7.3000000000000D-01  8.1261482097069D-01  9.3840876042364D-01
75  7.4000000000000D-01  8.5030552741245D-01  9.0520555765665D-01
76  7.5000000000000D-01  8.8788205924061D-01  8.7140108737274D-01
77  7.6000000000000D-01  9.2536492521532D-01  8.3704681828765D-01
78  7.7000000000000D-01  9.6276335781984D-01  8.0219673640096D-01
79  7.8000000000000D-01  1.0000733737812D+00  7.6690754032002D-01
80  7.9000000000000D-01  1.0372760682391D+00  7.3123879918173D-01
81  8.0000000000000D-01  1.0743361796745D+00  6.9525306731228D-01
82  8.1000000000000D-01  1.1112009583302D+00  6.5901595042587D-01
83  8.2000000000000D-01  1.1477993658493D+00  6.2259611892745D-01
84  8.3000000000000D-01  1.1840416283333D+00  5.8606526473627D-01
85  8.4000000000000D-01  1.2198191590154D+00  5.4949799897915D-01
86  8.5000000000000D-01  1.2550048604296D+00  5.1297168889064D-01
87  8.6000000000000D-01  1.2894538093787D+00  4.7656623329263D-01
88  8.7000000000000D-01  1.3230043213029D+00  4.4036377708713D-01
89  8.8000000000000D-01  1.3554793839415D+00  4.0444836626680D-01
90  8.9000000000000D-01  1.3866884435652D+00  3.6890554600824D-01
91  9.0000000000000D-01  1.4164295206483D+00  3.3382190545005D-01
92  9.1000000000000D-01  1.4444916258233D+00  2.9928457373938D-01
93  9.2000000000000D-01  1.4706574412706D+00  2.6538067286613D-01
94  9.3000000000000D-01  1.4947062276426D+00  2.3219673364531D-01
95  9.4000000000000D-01  1.5164169121293D+00  1.9981808196542D-01
96  9.5000000000000D-01  1.5355713095167D+00  1.6832820306745D-01
97  9.6000000000000D-01  1.5519574250985D+00  1.3780809214870D-01
98  9.7000000000000D-01  1.5653727861540D+00  1.0833559998602D-01
99  9.8000000000000D-01  1.5756277474265D+00  7.9984782538439D-02
100  9.9000000000000D-01  1.5825487156575D+00  5.2825263614053D-02
101  1.0000000000000D+00  1.5859812388382D+00  2.6921619658002D-02
102  1.0100000000000D+00  1.5857929071858D+00  2.3327955680143D-03
103  1.0200000000000D+00  1.5818760153166D+00 -2.0888439876537D-02
104  1.0300000000000D+00  1.5741499382618D+00 -4.2695990827863D-02
105  1.0400000000000D+00  1.5625631780045D+00 -6.3050875858228D-02
106  1.0500000000000D+00  1.5470950419429D+00 -8.1921607249370D-02
107  1.0600000000000D+00  1.5277569204756D+00 -9.9284502072603D-02
108  1.0700000000000D+00  1.5045931361173D+00 -1.1512391983434D-01
109  1.0800000000000D+00  1.4776813440814D+00 -1.2943242260975D-01
110  1.0900000000000D+00  1.4471324704564D+00 -1.4221085454268D-01
111  1.1000000000000D+00  1.4130901815827D+00 -1.5346833875149D-01
112  1.1100000000000D+00  1.3757298855636D+00 -1.6322219083113D-01
113  1.1200000000000D+00  1.3352572734709D+00 -1.7149774918708D-01
114  1.1300000000000D+00  1.2919064162231D+00 -1.7832812378187D-01
115  1.1400000000000D+00  1.2459374391399D+00 -1.8375386584833D-01
116  1.1500000000000D+00  1.1976338034579D+00 -1.8782256231465D-01
117  1.1600000000000D+00  1.1472992290693D+00 -1.9058835950222D-01
118  1.1700000000000D+00  1.0952543002012D+00 -1.9211142191051D-01
119  1.1800000000000D+00  1.0418327994078D+00 -1.9245733254165D-01
120  1.1900000000000D+00  9.8737781951948D-01 -1.9169644196803D-01
121  1.2000000000000D+00  9.3223770693625D-01 -1.8990317401792D-01
122  1.2100000000000D+00  8.7676189240590D-01 -1.8715529650475D-01
123  1.2200000000000D+00  8.2129666609802D-01 -1.8353316564980D-01
124  1.2300000000000D+00  7.6618095529173D-01 -1.7911895312742D-01
125  1.2400000000000D+00  7.1174216259909D-01 -1.7399586481497D-01
126  1.2500000000000D+00  6.5829212007674D-01 -1.6824736001624D-01
127  1.2600000000000D+00  6.0612321325323D-01 -1.6195637984439D-01
128  1.2700000000000D+00  5.5550473113265D-01 -1.5520459371252D-01
129  1.2800000000000D+00  5.0667945527950D-01 -1.4807166745516D-01
130  1.2900000000000D+00  4.5986074730655D-01 -1.4063458784784D-01
131  1.3000000000000D+00  4.1522952854489D-01 -1.3296696865727D-01
132  1.3100000000000D+00  3.7293177168980D-01 -1.2513842422591D-01
133  1.3200000000000D+00  3.3308017513520D-01 -1.1721441944927D-01
134  1.3300000000000D+00  2.9575625423008D-01 -1.0925623708892D-01
135  1.3400000000000D+00  2.6101352730928D-01 -1.0132113420367D-01
136  1.3500000000000D+00  2.2887737087003D-01 -9.3462146389623D-02
137  1.3600000000000D+00  1.9934559985871D-01 -8.5727995193540D-02
138  1.3700000000000D+00  1.7238977197534D-01 -7.8163084069447D-02
139  1.3800000000000D+00  1.4795673118412D-01 -7.0807539657370D-02
140  1.3900000000000D+00  1.2597055825666D-01 -6.3697313004508D-02
141  1.4000000000000D+00  1.0633485922265D-01 -5.6864333716539D-02
142  1.4100000000000D+00  8.8935356277031D-02 -5.0336712312651D-02
143  1.4200000000000D+00  7.3642735069283D-02 -4.4138984947241D-02
144  1.4300000000000D+00  6.0315703613519D-02 -3.8292394850969D-02
145  1.4400000000000D+00  4.8804203396688D-02 -3.2815202474838D-02
146  1.4500000000000D+00  3.8952724110079D-02 -2.7723018069457D-02
147  1.4600000000000D+00  3.0603659640751D-02 -2.3029148210375D-02
148  1.4700000000000D+00  2.3600652617006D-02 -1.8744949189779D-02
149  1.4800000000000D+00  1.7791863857839D-02 -1.4880178652614D-02
150  1.4900000000000D+00  1.3033120045006D-02 -1.1443339009103D-02
151  1.5000000000000D+00  9.1908727331233D-03 -8.4420035591504D-03
152  1.5100000000000D+00  6.1459417991646D-03 -5.8843021488743D-03
153  1.5200000000000D+00  3.7918150008573D-03 -3.7743376538378D-03
154  1.5300000000000D+00  2.0358331582219D-03 -2.1102863422609D-03
155  1.5400000000000D+00  8.2984286495419D-04 -9.2317756380197D-04
156  1.5500000000000D+00  1.3646261209642D-04 -2.3484788433871D-04
157  1.5600000000000D+00 -1.3059884976375D-04  4.2889984762911D-05
158  1.5700000000000D+00 -9.9342662432934D-05  5.8882677148514D-05
159  1.5800000000000D+00  7.2334652902352D-06 -4.6304583501502D-06
160  1.5900000000000D+00  2.3798780516230D-05 -1.5922199435436D-05
161  1.6000000000000D+00 -2.3248266669780D-06  1.4218158212651D-06
162  1.6100000000000D+00 -4.7258532037310D-06  2.9470099121023D-06
163  1.6200000000000D+00  2.0011801067946D-07 -6.6868883493430D-08
164  1.6300000000000D+00  3.0576519580154D-07 -1.0217060016227D-07
165  1.6400000000000D+00  0.0000000000000D+00  0.0000000000000D+00
166  1.6500000000000D+00  0.0000000000000D+00  0.0000000000000D+00
167  1.6600000000000D+00  0.0000000000000D+00  0.0000000000000D+00
168  1.6700000000000D+00  0.0000000000000D+00  0.0000000000000D+00
169  1.6800000000000D+00  0.0000000000000D+00  0.0000000000000D+00
170  1.6900000000000D+00  0.0000000000000D+00  0.0000000000000D+00
171  1.7000000000000D+00  0.0000000000000D+00  0.0000000000000D+00
172  1.7100000000000D+00  0.0000000000000D+00  0.0000000000000D+00
173  1.7200000000000D+00  0.0000000000000D+00  0.0000000000000D+00
174  1.7300000000000D+00  0.0000000000000D+00  0.0000000000000D+00
175  1.7400000000000D+00  0.0000000000000D+00  0.0000000000000D+00
176  1.7500000000000D+00  0.0000000000000D+00  0.0000000000000D+00
177  1.7600000000000D+00  0.0000000000000D+00  0.0000000000000D+00
178  1.7700000000000D+00  0.0000000000000D+00  0.0000000000000D+00
179  1.7800000000000D+00  0.0000000000000D+00  0.0000000000000D+00
180  1.7900000000000D+00  0.0000000000000D+00  0.0000000000000D+00
181  1.8000000000000D+00  0.0000000000000D+00  0.0000000000000D+00
182  1.8100000000000D+00  0.0000000000000D+00  0.0000000000000D+00
183  1.8200000000000D+00  0.0000000000000D+00  0.0000000000000D+00
184  1.8300000000000D+00  0.0000000000000D+00  0.0000000000000D+00
185  1.8400000000000D+00  0.0000000000000D+00  0.0000000000000D+00
186  1.8500000000000D+00  0.0000000000000D+00  0.0000000000000D+00
187  1.8600000000000D+00  0.0000000000000D+00  0.0000000000000D+00
188  1.8700000000000D+00  0.0000000000000D+00  0.0000000000000D+00
189  1.8800000000000D+00  0.0000000000000D+00  0.0000000000000D+00
190  1.8900000000000D+00  0.0000000000000D+00  0.0000000000000D+00
191  1.9000000000000D+00  0.0000000000000D+00  0.0000000000000D+00
192  1.9100000000000D+00  0.0000000000000D+00  0.0000000000000D+00
193  1.9200000000000D+00  0.0000000000000D+00  0.0000000000000D+00
194  1.9300000000000D+00  0.0000000000000D+00  0.0000000000000D+00
195  1.9400000000000D+00  0.0000000000000D+00  0.0000000000000D+00
196  1.9500000000000D+00  0.0000000000000D+00  0.0000000000000D+00
197  1.9600000000000D+00  0.0000000000000D+00  0.0000000000000D+00
198  1.9700000000000D+00  0.0000000000000D+00  0.0000000000000D+00
199  1.9800000000000D+00  0.0000000000000D+00  0.0000000000000D+00
200  1.9900000000000D+00  0.0000000000000D+00  0.0000000000000D+00
201  2.0000000000000D+00  0.0000000000000D+00  0.0000000000000D+00
202  2.0100000000000D+00  0.0000000000000D+00  0.0000000000000D+00
203  2.0200000000000D+00  0.0000000000000D+00  0.0000000000000D+00
204  2.0300000000000D+00  0.0000000000000D+00  0.0000000000000D+00
205  2.0400000000000D+00  0.0000000000000D+00  0.0000000000000D+00
206  2.0500000000000D+00  0.0000000000000D+00  0.0000000000000D+00
207  2.0600000000000D+00  0.0000000000000D+00  0.0000000000000D+00
208  2.0700000000000D+00  0.0000000000000D+00  0.0000000000000D+00
209  2.0800000000000D+00  0.0000000000000D+00  0.0000000000000D+00
210  2.0900000000000D+00  0.0000000000000D+00  0.0000000000000D+00
211  2.1000000000000D+00  0.0000000000000D+00  0.0000000000000D+00
212  2.1100000000000D+00  0.0000000000000D+00  0.0000000000000D+00
213  2.1200000000000D+00  0.0000000000000D+00  0.0000000000000D+00
214  2.1300000000000D+00  0.0000000000000D+00  0.0000000000000D+00
215  2.1400000000000D+00  0.0000000000000D+00  0.0000000000000D+00
216  2.1500000000000D+00  0.0000000000000D+00  0.0000000000000D+00
217  2.1600000000000D+00  0.0000000000000D+00  0.0000000000000D+00
218  2.1700000000000D+00  0.0000000000000D+00  0.0000000000000D+00
219  2.1800000000000D+00  0.0000000000000D+00  0.0000000000000D+00
220  2.1900000000000D+00  0.0000000000000D+00  0.0000000000000D+00
221  2.2000000000000D+00  0.0000000000000D+00  0.0000000000000D+00
222  2.2100000000000D+00  0.0000000000000D+00  0.0000000000000D+00
223  2.2200000000000D+00  0.0000000000000D+00  0.0000000000000D+00
224  2.2300000000000D+00  0.0000000000000D+00  0.0000000000000D+00
225  2.2400000000000D+00  0.0000000000000D+00  0.0000000000000D+00
226  2.2500000000000D+00  0.0000000000000D+00  0.0000000000000D+00
227  2.2600000000000D+00  0.0000000000000D+00  0.0000000000000D+00
228  2.2700000000000D+00  0.0000000000000D+00  0.0000000000000D+00
229  2.2800000000000D+00  0.0000000000000D+00  0.0000000000000D+00
230  2.2900000000000D+00  0.0000000000000D+00  0.0000000000000D+00
231  2.3000000000000D+00  0.0000000000000D+00  0.0000000000000D+00
232  2.3100000000000D+00  0.0000000000000D+00  0.0000000000000D+00
233  2.3200000000000D+00  0.0000000000000D+00  0.0000000000000D+00
234  2.3300000000000D+00  0.0000000000000D+00  0.0000000000000D+00
235  2.3400000000000D+00  0.0000000000000D+00  0.0000000000000D+00
236  2.3500000000000D+00  0.0000000000000D+00  0.0000000000000D+00
237  2.3600000000000D+00  0.0000000000000D+00  0.0000000000000D+00
238  2.3700000000000D+00  0.0000000000000D+00  0.0000000000000D+00
239  2.3800000000000D+00  0.0000000000000D+00  0.0000000000000D+00
240  2.3900000000000D+00  0.0000000000000D+00  0.0000000000000D+00
241  2.4000000000000D+00  0.0000000000000D+00  0.0000000000000D+00
242  2.4100000000000D+00  0.0000000000000D+00  0.0000000000000D+00
243  2.4200000000000D+00  0.0000000000000D+00  0.0000000000000D+00
244  2.4300000000000D+00  0.0000000000000D+00  0.0000000000000D+00
245  2.4400000000000D+00  0.0000000000000D+00  0.0000000000000D+00
246  2.4500000000000D+00  0.0000000000000D+00  0.0000000000000D+00
247  2.4600000000000D+00  0.0000000000000D+00  0.0000000000000D+00
248  2.4700000000000D+00  0.0000000000000D+00  0.0000000000000D+00
249  2.4800000000000D+00  0.0000000000000D+00  0.0000000000000D+00
250  2.4900000000000D+00  0.0000000000000D+00  0.0000000000000D+00
251  2.5000000000000D+00  0.0000000000000D+00  0.0000000000000D+00
252  2.5100000000000D+00  0.0000000000000D+00  0.0000000000000D+00
253  2.5200000000000D+00  0.0000000000000D+00  0.0000000000000D+00
254  2.5300000000000D+00  0.0000000000000D+00  0.0000000000000D+00
255  2.5400000000000D+00  0.0000000000000D+00  0.0000000000000D+00
256  2.5500000000000D+00  0.0000000000000D+00  0.0000000000000D+00
257  2.5600000000000D+00  0.0000000000000D+00  0.0000000000000D+00
258  2.5700000000000D+00  0.0000000000000D+00  0.0000000000000D+00
259  2.5800000000000D+00  0.0000000000000D+00  0.0000000000000D+00
260  2.5900000000000D+00  0.0000000000000D+00  0.0000000000000D+00
261  2.6000000000000D+00  0.0000000000000D+00  0.0000000000000D+00
262  2.6100000000000D+00  0.0000000000000D+00  0.0000000000000D+00
263  2.6200000000000D+00  0.0000000000000D+00  0.0000000000000D+00
264  2.6300000000000D+00  0.0000000000000D+00  0.0000000000000D+00
265  2.6400000000000D+00  0.0000000000000D+00  0.0000000000000D+00
266  2.6500000000000D+00  0.0000000000000D+00  0.0000000000000D+00
267  2.6600000000000D+00  0.0000000000000D+00  0.0000000000000D+00
268  2.6700000000000D+00  0.0000000000000D+00  0.0000000000000D+00
269  2.6800000000000D+00  0.0000000000000D+00  0.0000000000000D+00
270  2.6900000000000D+00  0.0000000000000D+00  0.0000000000000D+00
271  2.7000000000000D+00  0.0000000000000D+00  0.0000000000000D+00
272  2.7100000000000D+00  0.0000000000000D+00  0.0000000000000D+00
273  2.7200000000000D+00  0.0000000000000D+00  0.0000000000000D+00
274  2.7300000000000D+00  0.0000000000000D+00  0.0000000000000D+00
275  2.7400000000000D+00  0.0000000000000D+00  0.0000000000000D+00
276  2.7500000000000D+00  0.0000000000000D+00  0.0000000000000D+00
277  2.7600000000000D+00  0.0000000000000D+00  0.0000000000000D+00
278  2.7700000000000D+00  0.0000000000000D+00  0.0000000000000D+00
279  2.7800000000000D+00  0.0000000000000D+00  0.0000000000000D+00
280  2.7900000000000D+00  0.0000000000000D+00  0.0000000000000D+00
281  2.8000000000000D+00  0.0000000000000D+00  0.0000000000000D+00
282  2.8100000000000D+00  0.0000000000000D+00  0.0000000000000D+00
283  2.8200000000000D+00  0.0000000000000D+00  0.0000000000000D+00
284  2.8300000000000D+00  0.0000000000000D+00  0.0000000000000D+00
285  2.8400000000000D+00  0.0000000000000D+00  0.0000000000000D+00
286  2.8500000000000D+00  0.0000000000000D+00  0.0000000000000D+00
287  2.8600000000000D+00  0.0000000000000D+00  0.0000000000000D+00
288  2.8700000000000D+00  0.0000000000000D+00  0.0000000000000D+00
289  2.8800000000000D+00  0.0000000000000D+00  0.0000000000000D+00
290  2.8900000000000D+00  0.0000000000000D+00  0.0000000000000D+00
291  2.9000000000000D+00  0.0000000000000D+00  0.0000000000000D+00
292  2.9100000000000D+00  0.0000000000000D+00  0.0000000000000D+00
293  2.9200000000000D+00  0.0000000000000D+00  0.0000000000000D+00
294  2.9300000000000D+00  0.0000000000000D+00  0.0000000000000D+00
295  2.9400000000000D+00  0.0000000000000D+00  0.0000000000000D+00
296  2.9500000000000D+00  0.0000000000000D+00  0.0000000000000D+00
297  2.9600000000000D+00  0.0000000000000D+00  0.0000000000000D+00
298  2.9700000000000D+00  0.0000000000000D+00  0.0000000000000D+00
299  2.9800000000000D+00  0.0000000000000D+00  0.0000000000000D+00
300  2.9900000000000D+00  0.0000000000000D+00  0.0000000000000D+00
301  3.0000000000000D+00  0.0000000000000D+00  0.0000000000000D+00
302  3.0100000000000D+00  0.0000000000000D+00  0.0000000000000D+00
303  3.0200000000000D+00  0.0000000000000D+00  0.0000000000000D+00
304  3.0300000000000D+00  0.0000000000000D+00  0.0000000000000D+00
305  3.0400000000000D+00  0.0000000000000D+00  0.0000000000000D+00
306  3.0500000000000D+00  0.0000000000000D+00  0.0000000000000D+00
307  3.0600000000000D+00  0.0000000000000D+00  0.0000000000000D+00
308  3.0700000000000D+00  0.0000000000000D+00  0.0000000000000D+00
309  3.0800000000000D+00  0.0000000000000D+00  0.0000000000000D+00
310  3.0900000000000D+00  0.0000000000000D+00  0.0000000000000D+00
311  3.1000000000000D+00  0.0000000000000D+00  0.0000000000000D+00
312  3.1100000000000D+00  0.0000000000000D+00  0.0000000000000D+00
313  3.1200000000000D+00  0.0000000000000D+00  0.0000000000000D+00
314  3.1300000000000D+00  0.0000000000000D+00  0.0000000000000D+00
315  3.1400000000000D+00  0.0000000000000D+00  0.0000000000000D+00
316  3.1500000000000D+00  0.0000000000000D+00  0.0000000000000D+00
317  3.1600000000000D+00  0.0000000000000D+00  0.0000000000000D+00
318  3.1700000000000D+00  0.0000000000000D+00  0.0000000000000D+00
319  3.1800000000000D+00  0.0000000000000D+00  0.0000000000000D+00
320  3.1900000000000D+00  0.0000000000000D+00  0.0000000000000D+00
321  3.2000000000000D+00  0.0000000000000D+00  0.0000000000000D+00
322  3.2100000000000D+00  0.0000000000000D+00  0.0000000000000D+00
323  3.2200000000000D+00  0.0000000000000D+00  0.0000000000000D+00
324  3.2300000000000D+00  0.0000000000000D+00  0.0000000000000D+00
325  3.2400000000000D+00  0.0000000000000D+00  0.0000000000000D+00
326  3.2500000000000D+00  0.0000000000000D+00  0.0000000000000D+00
327  3.2600000000000D+00  0.0000000000000D+00  0.0000000000000D+00
328  3.2700000000000D+00  0.0000000000000D+00  0.0000000000000D+00
329  3.2800000000000D+00  0.0000000000000D+00  0.0000000000000D+00
330  3.2900000000000D+00  0.0000000000000D+00  0.0000000000000D+00
331  3.3000000000000D+00  0.0000000000000D+00  0.0000000000000D+00
332  3.3100000000000D+00  0.0000000000000D+00  0.0000000000000D+00
333  3.3200000000000D+00  0.0000000000000D+00  0.0000000000000D+00
334  3.3300000000000D+00  0.0000000000000D+00  0.0000000000000D+00
335  3.3400000000000D+00  0.0000000000000D+00  0.0000000000000D+00
336  3.3500000000000D+00  0.0000000000000D+00  0.0000000000000D+00
337  3.3600000000000D+00  0.0000000000000D+00  0.0000000000000D+00
338  3.3700000000000D+00  0.0000000000000D+00  0.0000000000000D+00
339  3.3800000000000D+00  0.0000000000000D+00  0.0000000000000D+00
340  3.3900000000000D+00  0.0000000000000D+00  0.0000000000000D+00
341  3.4000000000000D+00  0.0000000000000D+00  0.0000000000000D+00
342  3.4100000000000D+00  0.0000000000000D+00  0.0000000000000D+00
343  3.4200000000000D+00  0.0000000000000D+00  0.0000000000000D+00
344  3.4300000000000D+00  0.0000000000000D+00  0.0000000000000D+00
345  3.4400000000000D+00  0.0000000000000D+00  0.0000000000000D+00
346  3.4500000000000D+00  0.0000000000000D+00  0.0000000000000D+00
347  3.4600000000000D+00  0.0000000000000D+00  0.0000000000000D+00
348  3.4700000000000D+00  0.0000000000000D+00  0.0000000000000D+00
349  3.4800000000000D+00  0.0000000000000D+00  0.0000000000000D+00
350  3.4900000000000D+00  0.0000000000000D+00  0.0000000000000D+00
351  3.5000000000000D+00  0.0000000000000D+00  0.0000000000000D+00
352  3.5100000000000D+00  0.0000000000000D+00  0.0000000000000D+00
353  3.5200000000000D+00  0.0000000000000D+00  0.0000000000000D+00
354  3.5300000000000D+00  0.0000000000000D+00  0.0000000000000D+00
355  3.5400000000000D+00  0.0000000000000D+00  0.0000000000000D+00
356  3.5500000000000D+00  0.0000000000000D+00  0.0000000000000D+00
357  3.5600000000000D+00  0.0000000000000D+00  0.0000000000000D+00
358  3.5700000000000D+00  0.0000000000000D+00  0.0000000000000D+00
359  3.5800000000000D+00  0.0000000000000D+00  0.0000000000000D+00
360  3.5900000000000D+00  0.0000000000000D+00  0.0000000000000D+00
361  3.6000000000000D+00  0.0000000000000D+00  0.0000000000000D+00
362  3.6100000000000D+00  0.0000000000000D+00  0.0000000000000D+00
363  3.6200000000000D+00  0.0000000000000D+00  0.0000000000000D+00
364  3.6300000000000D+00  0.0000000000000D+00  0.0000000000000D+00
365  3.6400000000000D+00  0.0000000000000D+00  0.0000000000000D+00
366  3.6500000000000D+00  0.0000000000000D+00  0.0000000000000D+00
367  3.6600000000000D+00  0.0000000000000D+00  0.0000000000000D+00
368  3.6700000000000D+00  0.0000000000000D+00  0.0000000000000D+00
369  3.6800000000000D+00  0.0000000000000D+00  0.0000000000000D+00
370  3.6900000000000D+00  0.0000000000000D+00  0.0000000000000D+00
371  3.7000000000000D+00  0.0000000000000D+00  0.0000000000000D+00
372  3.7100000000000D+00  0.0000000000000D+00  0.0000000000000D+00
373  3.7200000000000D+00  0.0000000000000D+00  0.0000000000000D+00
374  3.7300000000000D+00  0.0000000000000D+00  0.0000000000000D+00
375  3.7400000000000D+00  0.0000000000000D+00  0.0000000000000D+00
376  3.7500000000000D+00  0.0000000000000D+00  0.0000000000000D+00
377  3.7600000000000D+00  0.0000000000000D+00  0.0000000000000D+00
378  3.7700000000000D+00  0.0000000000000D+00  0.0000000000000D+00
379  3.7800000000000D+00  0.0000000000000D+00  0.0000000000000D+00
380  3.7900000000000D+00  0.0000000000000D+00  0.0000000000000D+00
381  3.8000000000000D+00  0.0000000000000D+00  0.0000000000000D+00
382  3.8100000000000D+00  0.0000000000000D+00  0.0000000000000D+00
383  3.8200000000000D+00  0.0000000000000D+00  0.0000000000000D+00
384  3.8300000000000D+00  0.0000000000000D+00  0.0000000000000D+00
385  3.8400000000000D+00  0.0000000000000D+00  0.0000000000000D+00
386  3.8500000000000D+00  0.0000000000000D+00  0.0000000000000D+00
387  3.8600000000000D+00  0.0000000000000D+00  0.0000000000000D+00
388  3.8700000000000D+00  0.0000000000000D+00  0.0000000000000D+00
389  3.8800000000000D+00  0.0000000000000D+00  0.0000000000000D+00
390  3.8900000000000D+00  0.0000000000000D+00  0.0000000000000D+00
391  3.9000000000000D+00  0.0000000000000D+00  0.0000000000000D+00
392  3.9100000000000D+00  0.0000000000000D+00  0.0000000000000D+00
393  3.9200000000000D+00  0.0000000000000D+00  0.0000000000000D+00
394  3.9300000000000D+00  0.0000000000000D+00  0.0000000000000D+00
395  3.9400000000000D+00  0.0000000000000D+00  0.0000000000000D+00
396  3.9500000000000D+00  0.0000000000000D+00  0.0000000000000D+00
397  3.9600000000000D+00  0.0000000000000D+00  0.0000000000000D+00
398  3.9700000000000D+00  0.0000000000000D+00  0.0000000000000D+00
399  3.9800000000000D+00  0.0000000000000D+00  0.0000000000000D+00
400  3.9900000000000D+00  0.0000000000000D+00  0.0000000000000D+00
401  4.0000000000000D+00  0.0000000000000D+00  0.0000000000000D+00
402  4.0100000000000D+00  0.0000000000000D+00  0.0000000000000D+00
403  4.0200000000000D+00  0.0000000000000D+00  0.0000000000000D+00
404  4.0300000000000D+00  0.0000000000000D+00  0.0000000000000D+00
405  4.0400000000000D+00  0.0000000000000D+00  0.0000000000000D+00
406  4.0500000000000D+00  0.0000000000000D+00  0.0000000000000D+00
407  4.0600000000000D+00  0.0000000000000D+00  0.0000000000000D+00
408  4.0700000000000D+00  0.0000000000000D+00  0.0000000000000D+00
409  4.0800000000000D+00  0.0000000000000D+00  0.0000000000000D+00
410  4.0900000000000D+00  0.0000000000000D+00  0.0000000000000D+00
411  4.1000000000000D+00  0.0000000000000D+00  0.0000000000000D+00
412  4.1100000000000D+00  0.0000000000000D+00  0.0000000000000D+00
413  4.1200000000000D+00  0.0000000000000D+00  0.0000000000000D+00
414  4.1300000000000D+00  0.0000000000000D+00  0.0000000000000D+00
415  4.1400000000000D+00  0.0000000000000D+00  0.0000000000000D+00
416  4.1500000000000D+00  0.0000000000000D+00  0.0000000000000D+00
417  4.1600000000000D+00  0.0000000000000D+00  0.0000000000000D+00
418  4.1700000000000D+00  0.0000000000000D+00  0.0000000000000D+00
419  4.1800000000000D+00  0.0000000000000D+00  0.0000000000000D+00
420  4.1900000000000D+00  0.0000000000000D+00  0.0000000000000D+00
421  4.2000000000000D+00  0.0000000000000D+00  0.0000000000000D+00
422  4.2100000000000D+00  0.0000000000000D+00  0.0000000000000D+00
423  4.2200000000000D+00  0.0000000000000D+00  0.0000000000000D+00
424  4.2300000000000D+00  0.0000000000000D+00  0.0000000000000D+00
425  4.2400000000000D+00  0.0000000000000D+00  0.0000000000000D+00
426  4.2500000000000D+00  0.0000000000000D+00  0.0000000000000D+00
427  4.2600000000000D+00  0.0000000000000D+00  0.0000000000000D+00
428  4.2700000000000D+00  0.0000000000000D+00  0.0000000000000D+00
429  4.2800000000000D+00  0.0000000000000D+00  0.0000000000000D+00
430  4.2900000000000D+00  0.0000000000000D+00  0.0000000000000D+00
431  4.3000000000000D+00  0.0000000000000D+00  0.0000000000000D+00
432  4.3100000000000D+00  0.0000000000000D+00  0.0000000000000D+00
433  4.3200000000000D+00  0.0000000000000D+00  0.0000000000000D+00
434  4.3300000000000D+00  0.0000000000000D+00  0.0000000000000D+00
435  4.3400000000000D+00  0.0000000000000D+00  0.0000000000000D+00
436  4.3500000000000D+00  0.0000000000000D+00  0.0000000000000D+00
437  4.3600000000000D+00  0.0000000000000D+00  0.0000000000000D+00
438  4.3700000000000D+00  0.0000000000000D+00  0.0000000000000D+00
439  4.3800000000000D+00  0.0000000000000D+00  0.0000000000000D+00
440  4.3900000000000D+00  0.0000000000000D+00  0.0000000000000D+00
441  4.4000000000000D+00  0.0000000000000D+00  0.0000000000000D+00
442  4.4100000000000D+00  0.0000000000000D+00  0.0000000000000D+00
443  4.4200000000000D+00  0.0000000000000D+00  0.0000000000000D+00