Co    ONCVPSP-3.3.0  r_core=   1.26190   1.32357   1.66026
27.0000     17.0000      180430    zatom,zion,pspd
8 -116133   2     4   600     0    pspcod,pspxc,lmax,lloc,mmax,r2well
5.99000000  6.00000000  0.00000000    rchrg fchrg qchrg
2     3     2     0    nproj
3     1           extension_switch
4     2     0    nprojso
0                        -6.5268548610670D-01  6.2953818149389D+00
1  0.0000000000000D+00  3.7923192919287D-09  6.0902505261140D-11
2  1.0000000000000D-02  3.1079056260937D-02  9.2752325066934D-02
3  2.0000000000000D-02  6.2196215103498D-02  1.8523170956200D-01
4  3.0000000000000D-02  9.3385796264375D-02  2.7716609890329D-01
5  4.0000000000000D-02  1.2467462281750D-01  3.6828520865381D-01
6  5.0000000000000D-02  1.5607844443206D-01  4.5832140499029D-01
7  6.0000000000000D-02  1.8759856381017D-01  5.4701057960277D-01
8  7.0000000000000D-02  2.1921872952178D-01  6.3409301709495D-01
9  8.0000000000000D-02  2.5090235466176D-01  7.1931425289429D-01
10  9.0000000000000D-02  2.8259011610396D-01  8.0242591960759D-01
11  1.0000000000000D-01  3.1419798367701D-01  8.8318657967344D-01
12  1.1000000000000D-01  3.4561572240565D-01  9.6136254207034D-01
13  1.2000000000000D-01  3.7670590412827D-01  1.0367286607398D+00
14  1.3000000000000D-01  4.0730345740164D-01  1.1090691122811D+00
15  1.4000000000000D-01  4.3721577673334D-01  1.1781781503699D+00
16  1.5000000000000D-01  4.6622340394123D-01  1.2438608342514D+00
17  1.6000000000000D-01  4.9408128593352D-01  1.3059337285614D+00
18  1.7000000000000D-01  5.2052060454410D-01  1.3642255716382D+00
19  1.8000000000000D-01  5.4525116535760D-01  1.4185779094133D+00
20  1.9000000000000D-01  5.6796432383307D-01  1.4688456919021D+00
21  2.0000000000000D-01  5.8833641859844D-01  1.5148978292712D+00
22  2.1000000000000D-01  6.0603267365404D-01  1.5566177044332D+00
23  2.2000000000000D-01  6.2071152350266D-01  1.5939036391169D+00
24  2.3000000000000D-01  6.3202930802457D-01  1.6266693103820D+00
25  2.4000000000000D-01  6.3964527733753D-01  1.6548441146023D+00
26  2.5000000000000D-01  6.4322684102222D-01  1.6783734760181D+00
27  2.6000000000000D-01  6.4245499103676D-01  1.6972190970730D+00
28  2.7000000000000D-01  6.3702982347028D-01  1.7113591478978D+00
29  2.8000000000000D-01  6.2667608106131D-01  1.7207883924807D+00
30  2.9000000000000D-01  6.1114863618897D-01  1.7255182492790D+00
31  3.0000000000000D-01  5.9023783287910D-01  1.7255767842775D+00
32  3.1000000000000D-01  5.6377460628350D-01  1.7210086347789D+00
33  3.2000000000000D-01  5.3163529910974D-01  1.7118748625305D+00
34  3.3000000000000D-01  4.9374609660286D-01  1.6982527351378D+00
35  3.4000000000000D-01  4.5008700490323D-01  1.6802354350960D+00
36  3.5000000000000D-01  4.0069530190000D-01  1.6579316961731D+00
37  3.6000000000000D-01  3.4566839503163D-01  1.6314653673128D+00
38  3.7000000000000D-01  2.8516602680186D-01  1.6009749046769D+00
39  3.8000000000000D-01  2.1941177601530D-01  1.5666127929160D+00
40  3.9000000000000D-01  1.4869381081532D-01  1.5285448972468D+00
41  4.0000000000000D-01  7.3364858436979D-02  1.4869497484031D+00
42  4.1000000000000D-01 -6.1586339324154D-03  1.4420177630357D+00
43  4.2000000000000D-01 -8.9398162772349D-02  1.3939504026277D+00
44  4.3000000000000D-01 -1.7581566147736D-01  1.3429592744958D+00
45  4.4000000000000D-01 -2.6481681765505D-01  1.2892651789270D+00
46  4.5000000000000D-01 -3.5575519800940D-01  1.2330971069760D+00
47  4.6000000000000D-01 -4.4793715344092D-01  1.1746911938916D+00
48  4.7000000000000D-01 -5.4062746621583D-01  1.1142896335718D+00
49  4.8000000000000D-01 -6.3305569054132D-01  1.0521395598310D+00
50  4.9000000000000D-01 -7.2442312777723D-01  9.8849190062619D-01
51  5.0000000000000D-01 -8.1391036795294D-01  9.2360021169904D-01
52  5.1000000000000D-01 -9.0068532037975D-01  8.5771949636348D-01
53  5.2000000000000D-01 -9.8391164807574D-01  7.9110501838678D-01
54  5.3000000000000D-01 -1.0627575135782D+00  7.2401111508034D-01
55  5.4000000000000D-01 -1.1364045376195D+00  6.5669001782665D-01
56  5.5000000000000D-01 -1.2040568671727D+00  5.8939068732079D-01
57  5.6000000000000D-01 -1.2649502456373D+00  5.2235767079564D-01
58  5.7000000000000D-01 -1.3183609754905D+00  4.5582998842855D-01
59  5.8000000000000D-01 -1.3636146626373D+00  3.9004005599210D-01
60  5.9000000000000D-01 -1.4000946319914D+00  3.2521265061394D-01
61  6.0000000000000D-01 -1.4272499055376D+00  2.6156392624949D-01
62  6.1000000000000D-01 -1.4446026372515D+00  1.9930048514950D-01
63  6.2000000000000D-01 -1.4517549037908D+00  1.3861851122305D-01
64  6.3000000000000D-01 -1.4483947557891D+00  7.9702970757514D-02
65  6.4000000000000D-01 -1.4343014417818D+00  2.2726885467664D-02
66  6.5000000000000D-01 -1.4093497253050D+00 -3.2149317696967D-02
67  6.6000000000000D-01 -1.3735132253301D+00 -8.4778376140907D-02
68  6.7000000000000D-01 -1.3268667208751D+00 -1.3502667738588D-01
69  6.8000000000000D-01 -1.2695873723109D+00 -1.8277465844619D-01
70  6.9000000000000D-01 -1.2019548243086D+00 -2.2791711693831D-01
71  7.0000000000000D-01 -1.1243501684441D+00 -2.7036343275111D-01
72  7.1000000000000D-01 -1.0372537571218D+00 -3.1003769982407D-01
73  7.2000000000000D-01 -9.4124187439443D-01 -3.4687876830585D-01
74  7.3000000000000D-01 -8.3698228334256D-01 -3.8084019808951D-01
75  7.4000000000000D-01 -7.2522868377342D-01 -4.1189012543780D-01
76  7.5000000000000D-01 -6.0681412781989D-01 -4.4001104510982D-01
77  7.6000000000000D-01 -4.8264345455718D-01 -4.6519951107888D-01
78  7.7000000000000D-01 -3.5368481764217D-01 -4.8746575957651D-01
79  7.8000000000000D-01 -2.2096039215751D-01 -5.0683325880522D-01
80  7.9000000000000D-01 -8.5536358110115D-02 -5.2333819022738D-01
81  8.0000000000000D-01  5.1487731773802D-02 -5.3702886685081D-01
82  8.1000000000000D-01  1.8899008333892D-01 -5.4796509438990D-01
83  8.2000000000000D-01  3.2583816713433D-01 -5.5621748157767D-01
84  8.3000000000000D-01  4.6090046899409D-01 -5.6186670623579D-01
85  8.4000000000000D-01  5.9305835008490D-01 -5.6500274397227D-01
86  8.5000000000000D-01  7.2121787850774D-01 -5.6572406656753D-01
87  8.6000000000000D-01  8.4432149332034D-01 -5.6413681722638D-01
88  8.7000000000000D-01  9.6135936237593D-01 -5.6035396991588D-01
89  8.8000000000000D-01  1.0713802976706D+00 -5.5449447997566D-01
90  8.9000000000000D-01  1.1735020959465D+00 -5.4668243307968D-01
91  9.0000000000000D-01  1.2669211780826D+00 -5.3704619944717D-01
92  9.1000000000000D-01  1.3509214082648D+00 -5.2571759994881D-01
93  9.2000000000000D-01  1.4248819829855D+00 -5.1283109043443D-01
94  9.3000000000000D-01  1.4882842904811D+00 -4.9852297022544D-01
95  9.4000000000000D-01  1.5407176531571D+00 -4.8293062027292D-01
96  9.5000000000000D-01  1.5818838787291D+00 -4.6619177598692D-01
97  9.6000000000000D-01  1.6116005600746D+00 -4.4844383919956D-01
98  9.7000000000000D-01  1.6298030789448D+00 -4.2982323314210D-01
99  9.8000000000000D-01  1.6365452846758D+00 -4.1046480369593D-01
100  9.9000000000000D-01  1.6319988353651D+00 -3.9050126953860D-01
101  1.0000000000000D+00  1.6164512056010D+00 -3.7006272315072D-01
102  1.0100000000000D+00  1.5903023820484D+00 -3.4927618396491D-01
103  1.0200000000000D+00  1.5540602845655D+00 -3.2826520428022D-01
104  1.0300000000000D+00  1.5083349670720D+00 -3.0714952789536D-01
105  1.0400000000000D+00  1.4538316682049D+00 -2.8604480076523D-01
106  1.0500000000000D+00  1.3913427971779D+00 -2.6506233234493D-01
107  1.0600000000000D+00  1.3217389533994D+00 -2.4430890573203D-01
108  1.0700000000000D+00  1.2459590928750D+00 -2.2388663409399D-01
109  1.0800000000000D+00  1.1649999649064D+00 -2.0389286040198D-01
110  1.0900000000000D+00  1.0799049532935D+00 -1.8442009700435D-01
111  1.1000000000000D+00  9.9175246462531D-01 -1.6555600116651D-01
112  1.1100000000000D+00  9.0164401280402D-01 -1.4738338237367D-01
113  1.1200000000000D+00  8.1069215461970D-01 -1.2998023686232D-01
114  1.1300000000000D+00  7.2000843357573D-01 -1.1341980466538D-01
115  1.1400000000000D+00  6.3069148994890D-01 -9.7770644295353D-02
116  1.1500000000000D+00  5.4381549526075D-01 -8.3096720103835D-02
117  1.1600000000000D+00  4.6041906540568D-01 -6.9457497335458D-02
118  1.1700000000000D+00  3.8149481702264D-01 -5.6908040266756D-02
119  1.1800000000000D+00  3.0797969774006D-01 -4.5499107985708D-02
120  1.1900000000000D+00  2.4074578062871D-01 -3.5277237375659D-02
121  1.2000000000000D+00  1.8059351336598D-01 -2.6284837245658D-02
122  1.2100000000000D+00  1.2824487108883D-01 -1.8560251717476D-02
123  1.2200000000000D+00  8.4332763509700D-02 -1.2139040640353D-02
124  1.2300000000000D+00  4.9335598111268D-02 -7.0476842517670D-03
125  1.2400000000000D+00  2.3455752214599D-02 -3.2899852161622D-03
126  1.2500000000000D+00  7.6676924207566D-03 -9.8355452672566D-04
127  1.2600000000000D+00  1.1464127296577D-03 -2.9973800989798D-05
128  1.2700000000000D+00 -1.8761140474905D-04  8.8891111350561D-05
129  1.2800000000000D+00  6.2966843240269D-05 -1.9303539937788D-05
130  1.2900000000000D+00  4.2973689850844D-05 -1.1559360944973D-05
131  1.3000000000000D+00 -1.5201794709455D-05  5.3365012074708D-06
132  1.3100000000000D+00 -8.4601753696427D-07 -5.0898597922217D-08
133  1.3200000000000D+00 -1.1198118916845D-06 -6.7370772747676D-08
134  1.3300000000000D+00  0.0000000000000D+00  0.0000000000000D+00
135  1.3400000000000D+00  0.0000000000000D+00  0.0000000000000D+00
136  1.3500000000000D+00  0.0000000000000D+00  0.0000000000000D+00
137  1.3600000000000D+00  0.0000000000000D+00  0.0000000000000D+00
138  1.3700000000000D+00  0.0000000000000D+00  0.0000000000000D+00
139  1.3800000000000D+00  0.0000000000000D+00  0.0000000000000D+00
140  1.3900000000000D+00  0.0000000000000D+00  0.0000000000000D+00
141  1.4000000000000D+00  0.0000000000000D+00  0.0000000000000D+00
142  1.4100000000000D+00  0.0000000000000D+00  0.0000000000000D+00
143  1.4200000000000D+00  0.0000000000000D+00  0.0000000000000D+00
144  1.4300000000000D+00  0.0000000000000D+00  0.0000000000000D+00
145  1.4400000000000D+00  0.0000000000000D+00  0.0000000000000D+00
146  1.4500000000000D+00  0.0000000000000D+00  0.0000000000000D+00
147  1.4600000000000D+00  0.0000000000000D+00  0.0000000000000D+00
148  1.4700000000000D+00  0.0000000000000D+00  0.0000000000000D+00
149  1.4800000000000D+00  0.0000000000000D+00  0.0000000000000D+00
150  1.4900000000000D+00  0.0000000000000D+00  0.0000000000000D+00
151  1.5000000000000D+00  0.0000000000000D+00  0.0000000000000D+00
152  1.5100000000000D+00  0.0000000000000D+00  0.0000000000000D+00
153  1.5200000000000D+00  0.0000000000000D+00  0.0000000000000D+00
154  1.5300000000000D+00  0.0000000000000D+00  0.0000000000000D+00
155  1.5400000000000D+00  0.0000000000000D+00  0.0000000000000D+00
156  1.5500000000000D+00  0.0000000000000D+00  0.0000000000000D+00
157  1.5600000000000D+00  0.0000000000000D+00  0.0000000000000D+00
158  1.5700000000000D+00  0.0000000000000D+00  0.0000000000000D+00
159  1.5800000000000D+00  0.0000000000000D+00  0.0000000000000D+00
160  1.5900000000000D+00  0.0000000000000D+00  0.0000000000000D+00
161  1.6000000000000D+00  0.0000000000000D+00  0.0000000000000D+00
162  1.6100000000000D+00  0.0000000000000D+00  0.0000000000000D+00
163  1.6200000000000D+00  0.0000000000000D+00  0.0000000000000D+00
164  1.6300000000000D+00  0.0000000000000D+00  0.0000000000000D+00
165  1.6400000000000D+00  0.0000000000000D+00  0.0000000000000D+00
166  1.6500000000000D+00  0.0000000000000D+00  0.0000000000000D+00
167  1.6600000000000D+00  0.0000000000000D+00  0.0000000000000D+00
168  1.6700000000000D+00  0.0000000000000D+00  0.0000000000000D+00
169  1.6800000000000D+00  0.0000000000000D+00  0.0000000000000D+00
170  1.6900000000000D+00  0.0000000000000D+00  0.0000000000000D+00
171  1.7000000000000D+00  0.0000000000000D+00  0.0000000000000D+00
172  1.7100000000000D+00  0.0000000000000D+00  0.0000000000000D+00
173  1.7200000000000D+00  0.0000000000000D+00  0.0000000000000D+00
174  1.7300000000000D+00  0.0000000000000D+00  0.0000000000000D+00
175  1.7400000000000D+00  0.0000000000000D+00  0.0000000000000D+00
176  1.7500000000000D+00  0.0000000000000D+00  0.0000000000000D+00
177  1.7600000000000D+00  0.0000000000000D+00  0.0000000000000D+00
178  1.7700000000000D+00  0.0000000000000D+00  0.0000000000000D+00
179  1.7800000000000D+00  0.0000000000000D+00  0.0000000000000D+00
180  1.7900000000000D+00  0.0000000000000D+00  0.0000000000000D+00
181  1.8000000000000D+00  0.0000000000000D+00  0.0000000000000D+00
182  1.8100000000000D+00  0.0000000000000D+00  0.0000000000000D+00
183  1.8200000000000D+00  0.0000000000000D+00  0.0000000000000D+00
184  1.8300000000000D+00  0.0000000000000D+00  0.0000000000000D+00
185  1.8400000000000D+00  0.0000000000000D+00  0.0000000000000D+00
186  1.8500000000000D+00  0.0000000000000D+00  0.0000000000000D+00
187  1.8600000000000D+00  0.0000000000000D+00  0.0000000000000D+00
188  1.8700000000000D+00  0.0000000000000D+00  0.0000000000000D+00
189  1.8800000000000D+00  0.0000000000000D+00  0.0000000000000D+00
190  1.8900000000000D+00  0.0000000000000D+00  0.0000000000000D+00
191  1.9000000000000D+00  0.0000000000000D+00  0.0000000000000D+00
192  1.9100000000000D+00  0.0000000000000D+00  0.0000000000000D+00
193  1.9200000000000D+00  0.0000000000000D+00  0.0000000000000D+00
194  1.9300000000000D+00  0.0000000000000D+00  0.0000000000000D+00
195  1.9400000000000D+00  0.0000000000000D+00  0.0000000000000D+00
196  1.9500000000000D+00  0.0000000000000D+00  0.0000000000000D+00
197  1.9600000000000D+00  0.0000000000000D+00  0.0000000000000D+00
198  1.9700000000000D+00  0.0000000000000D+00  0.0000000000000D+00
199  1.9800000000000D+00  0.0000000000000D+00  0.0000000000000D+00
200  1.9900000000000D+00  0.0000000000000D+00  0.0000000000000D+00
201  2.0000000000000D+00  0.0000000000000D+00  0.0000000000000D+00
202  2.0100000000000D+00  0.0000000000000D+00  0.0000000000000D+00
203  2.0200000000000D+00  0.0000000000000D+00  0.0000000000000D+00
204  2.0300000000000D+00  0.0000000000000D+00  0.0000000000000D+00
205  2.0400000000000D+00  0.0000000000000D+00  0.0000000000000D+00
206  2.0500000000000D+00  0.0000000000000D+00  0.0000000000000D+00
207  2.0600000000000D+00  0.0000000000000D+00  0.0000000000000D+00
208  2.0700000000000D+00  0.0000000000000D+00  0.0000000000000D+00
209  2.0800000000000D+00  0.0000000000000D+00  0.0000000000000D+00
210  2.0900000000000D+00  0.0000000000000D+00  0.0000000000000D+00
211  2.1000000000000D+00  0.0000000000000D+00  0.0000000000000D+00
212  2.1100000000000D+00  0.0000000000000D+00  0.0000000000000D+00
213  2.1200000000000D+00  0.0000000000000D+00  0.0000000000000D+00
214  2.1300000000000D+00  0.0000000000000D+00  0.0000000000000D+00
215  2.1400000000000D+00  0.0000000000000D+00  0.0000000000000D+00
216  2.1500000000000D+00  0.0000000000000D+00  0.0000000000000D+00
217  2.1600000000000D+00  0.0000000000000D+00  0.0000000000000D+00
218  2.1700000000000D+00  0.0000000000000D+00  0.0000000000000D+00
219  2.1800000000000D+00  0.0000000000000D+00  0.0000000000000D+00
220  2.1900000000000D+00  0.0000000000000D+00  0.0000000000000D+00
221  2.2000000000000D+00  0.0000000000000D+00  0.0000000000000D+00
222  2.2100000000000D+00  0.0000000000000D+00  0.0000000000000D+00
223  2.2200000000000D+00  0.0000000000000D+00  0.0000000000000D+00
224  2.2300000000000D+00  0.0000000000000D+00  0.0000000000000D+00
225  2.2400000000000D+00  0.0000000000000D+00  0.0000000000000D+00
226  2.2500000000000D+00  0.0000000000000D+00  0.0000000000000D+00
227  2.2600000000000D+00  0.0000000000000D+00  0.0000000000000D+00
228  2.2700000000000D+00  0.0000000000000D+00  0.0000000000000D+00
229  2.2800000000000D+00  0.0000000000000D+00  0.0000000000000D+00
230  2.2900000000000D+00  0.0000000000000D+00  0.0000000000000D+00
231  2.3000000000000D+00  0.0000000000000D+00  0.0000000000000D+00
232  2.3100000000000D+00  0.0000000000000D+00  0.0000000000000D+00
233  2.3200000000000D+00  0.0000000000000D+00  0.0000000000000D+00
234  2.3300000000000D+00  0.0000000000000D+00  0.0000000000000D+00
235  2.3400000000000D+00  0.0000000000000D+00  0.0000000000000D+00
236  2.3500000000000D+00  0.0000000000000D+00  0.0000000000000D+00
237  2.3600000000000D+00  0.0000000000000D+00  0.0000000000000D+00
238  2.3700000000000D+00  0.0000000000000D+00  0.0000000000000D+00
239  2.3800000000000D+00  0.0000000000000D+00  0.0000000000000D+00
240  2.3900000000000D+00  0.0000000000000D+00  0.0000000000000D+00
241  2.4000000000000D+00  0.0000000000000D+00  0.0000000000000D+00
242  2.4100000000000D+00  0.0000000000000D+00  0.0000000000000D+00
243  2.4200000000000D+00  0.0000000000000D+00  0.0000000000000D+00
244  2.4300000000000D+00  0.0000000000000D+00  0.0000000000000D+00
245  2.4400000000000D+00  0.0000000000000D+00  0.0000000000000D+00
246  2.4500000000000D+00  0.0000000000000D+00  0.0000000000000D+00
247  2.4600000000000D+00  0.0000000000000D+00  0.0000000000000D+00
248  2.4700000000000D+00  0.0000000000000D+00  0.0000000000000D+00
249  2.4800000000000D+00  0.0000000000000D+00  0.0000000000000D+00
250  2.4900000000000D+00  0.0000000000000D+00  0.0000000000000D+00
251  2.5000000000000D+00  0.0000000000000D+00  0.0000000000000D+00
252  2.5100000000000D+00  0.0000000000000D+00  0.0000000000000D+00
253  2.5200000000000D+00  0.0000000000000D+00  0.0000000000000D+00
254  2.5300000000000D+00  0.0000000000000D+00  0.0000000000000D+00
255  2.5400000000000D+00  0.0000000000000D+00  0.0000000000000D+00
256  2.5500000000000D+00  0.0000000000000D+00  0.0000000000000D+00
257  2.5600000000000D+00  0.0000000000000D+00  0.0000000000000D+00
258  2.5700000000000D+00  0.0000000000000D+00  0.0000000000000D+00
259  2.5800000000000D+00  0.0000000000000D+00  0.0000000000000D+00
260  2.5900000000000D+00  0.0000000000000D+00  0.0000000000000D+00
261  2.6000000000000D+00  0.0000000000000D+00  0.0000000000000D+00
262  2.6100000000000D+00  0.0000000000000D+00  0.0000000000000D+00
263  2.6200000000000D+00  0.0000000000000D+00  0.0000000000000D+00
264  2.6300000000000D+00  0.0000000000000D+00  0.0000000000000D+00
265  2.6400000000000D+00  0.0000000000000D+00  0.0000000000000D+00
266  2.6500000000000D+00  0.0000000000000D+00  0.0000000000000D+00
267  2.6600000000000D+00  0.0000000000000D+00  0.0000000000000D+00
268  2.6700000000000D+00  0.0000000000000D+00  0.0000000000000D+00
269  2.6800000000000D+00  0.0000000000000D+00  0.0000000000000D+00
270  2.6900000000000D+00  0.0000000000000D+00  0.0000000000000D+00
271  2.7000000000000D+00  0.0000000000000D+00  0.0000000000000D+00
272  2.7100000000000D+00  0.0000000000000D+00  0.0000000000000D+00
273  2.7200000000000D+00  0.0000000000000D+00  0.0000000000000D+00
274  2.7300000000000D+00  0.0000000000000D+00  0.0000000000000D+00
275  2.7400000000000D+00  0.0000000000000D+00  0.0000000000000D+00
276  2.7500000000000D+00  0.0000000000000D+00  0.0000000000000D+00
277  2.7600000000000D+00  0.0000000000000D+00  0.0000000000000D+00
278  2.7700000000000D+00  0.0000000000000D+00  0.0000000000000D+00
279  2.7800000000000D+00  0.0000000000000D+00  0.0000000000000D+00
280  2.7900000000000D+00  0.0000000000000D+00  0.0000000000000D+00
281  2.8000000000000D+00  0.0000000000000D+00  0.0000000000000D+00
282  2.8100000000000D+00  0.0000000000000D+00  0.0000000000000D+00
283  2.8200000000000D+00  0.0000000000000D+00  0.0000000000000D+00
284  2.8300000000000D+00  0.0000000000000D+00  0.0000000000000D+00
285  2.8400000000000D+00  0.0000000000000D+00  0.0000000000000D+00
286  2.8500000000000D+00  0.0000000000000D+00  0.0000000000000D+00
287  2.8600000000000D+00  0.0000000000000D+00  0.0000000000000D+00
288  2.8700000000000D+00  0.0000000000000D+00  0.0000000000000D+00
289  2.8800000000000D+00  0.0000000000000D+00  0.0000000000000D+00
290  2.8900000000000D+00  0.0000000000000D+00  0.0000000000000D+00
291  2.9000000000000D+00  0.0000000000000D+00  0.0000000000000D+00
292  2.9100000000000D+00  0.0000000000000D+00  0.0000000000000D+00
293  2.9200000000000D+00  0.0000000000000D+00  0.0000000000000D+00
294  2.9300000000000D+00  0.0000000000000D+00  0.0000000000000D+00
295  2.9400000000000D+00  0.0000000000000D+00  0.0000000000000D+00
296  2.9500000000000D+00  0.0000000000000D+00  0.0000000000000D+00
297  2.9600000000000D+00  0.0000000000000D+00  0.0000000000000D+00
298  2.9700000000000D+00  0.0000000000000D+00  0.0000000000000D+00
299  2.9800000000000D+00  0.0000000000000D+00  0.0000000000000D+00
300  2.9900000000000D+00  0.0000000000000D+00  0.0000000000000D+00
301  3.0000000000000D+00  0.0000000000000D+00  0.0000000000000D+00
302  3.0100000000000D+00  0.0000000000000D+00  0.0000000000000D+00
303  3.0200000000000D+00  0.0000000000000D+00  0.0000000000000D+00
304  3.0300000000000D+00  0.0000000000000D+00  0.0000000000000D+00
305  3.0400000000000D+00  0.0000000000000D+00  0.0000000000000D+00
306  3.0500000000000D+00  0.0000000000000D+00  0.0000000000000D+00
307  3.0600000000000D+00  0.0000000000000D+00  0.0000000000000D+00
308  3.0700000000000D+00  0.0000000000000D+00  0.0000000000000D+00
309  3.0800000000000D+00  0.0000000000000D+00  0.0000000000000D+00
310  3.0900000000000D+00  0.0000000000000D+00  0.0000000000000D+00
311  3.1000000000000D+00  0.0000000000000D+00  0.0000000000000D+00
312  3.1100000000000D+00  0.0000000000000D+00  0.0000000000000D+00
313  3.1200000000000D+00  0.0000000000000D+00  0.0000000000000D+00
314  3.1300000000000D+00  0.0000000000000D+00  0.0000000000000D+00
315  3.1400000000000D+00  0.0000000000000D+00  0.0000000000000D+00
316  3.1500000000000D+00  0.0000000000000D+00  0.0000000000000D+00
317  3.1600000000000D+00  0.0000000000000D+00  0.0000000000000D+00
318  3.1700000000000D+00  0.0000000000000D+00  0.0000000000000D+00
319  3.1800000000000D+00  0.0000000000000D+00  0.0000000000000D+00
320  3.1900000000000D+00  0.0000000000000D+00  0.0000000000000D+00
321  3.2000000000000D+00  0.0000000000000D+00  0.0000000000000D+00
322  3.2100000000000D+00  0.0000000000000D+00  0.0000000000000D+00
323  3.2200000000000D+00  0.0000000000000D+00  0.0000000000000D+00
324  3.2300000000000D+00  0.0000000000000D+00  0.0000000000000D+00
325  3.2400000000000D+00  0.0000000000000D+00  0.0000000000000D+00
326  3.2500000000000D+00  0.0000000000000D+00  0.0000000000000D+00
327  3.2600000000000D+00  0.0000000000000D+00  0.0000000000000D+00
328  3.2700000000000D+00  0.0000000000000D+00  0.0000000000000D+00
329  3.2800000000000D+00  0.0000000000000D+00  0.0000000000000D+00
330  3.2900000000000D+00  0.0000000000000D+00  0.0000000000000D+00
331  3.3000000000000D+00  0.0000000000000D+00  0.0000000000000D+00
332  3.3100000000000D+00  0.0000000000000D+00  0.0000000000000D+00
333  3.3200000000000D+00  0.0000000000000D+00  0.0000000000000D+00
334  3.3300000000000D+00  0.0000000000000D+00  0.0000000000000D+00
335  3.3400000000000D+00  0.0000000000000D+00  0.0000000000000D+00
336  3.3500000000000D+00  0.0000000000000D+00  0.0000000000000D+00
337  3.3600000000000D+00  0.0000000000000D+00  0.0000000000000D+00
338  3.3700000000000D+00  0.0000000000000D+00  0.0000000000000D+00
339  3.3800000000000D+00  0.0000000000000D+00  0.0000000000000D+00
340  3.3900000000000D+00  0.0000000000000D+00  0.0000000000000D+00
341  3.4000000000000D+00  0.0000000000000D+00  0.0000000000000D+00
342  3.4100000000000D+00  0.0000000000000D+00  0.0000000000000D+00
343  3.4200000000000D+00  0.0000000000000D+00  0.0000000000000D+00
344  3.4300000000000D+00  0.0000000000000D+00  0.0000000000000D+00
345  3.4400000000000D+00  0.0000000000000D+00  0.0000000000000D+00
346  3.4500000000000D+00  0.0000000000000D+00  0.0000000000000D+00
347  3.4600000000000D+00  0.0000000000000D+00  0.0000000000000D+00
348  3.4700000000000D+00  0.0000000000000D+00  0.0000000000000D+00
349  3.4800000000000D+00  0.0000000000000D+00  0.0000000000000D+00
350  3.4900000000000D+00  0.0000000000000D+00  0.0000000000000D+00
351  3.5000000000000D+00  0.0000000000000D+00  0.0000000000000D+00
352  3.5100000000000D+00  0.0000000000000D+00  0.0000000000000D+00
353  3.5200000000000D+00  0.0000000000000D+00  0.0000000000000D+00
354  3.5300000000000D+00  0.0000000000000D+00  0.0000000000000D+00
355  3.5400000000000D+00  0.0000000000000D+00  0.0000000000000D+00
356  3.5500000000000D+00  0.0000000000000D+00  0.0000000000000D+00
357  3.5600000000000D+00  0.0000000000000D+00  0.0000000000000D+00
358  3.5700000000000D+00  0.0000000000000D+00  0.0000000000000D+00
359  3.5800000000000D+00  0.0000000000000D+00  0.0000000000000D+00
360  3.5900000000000D+00  0.0000000000000D+00  0.0000000000000D+00
361  3.6000000000000D+00  0.0000000000000D+00  0.0000000000000D+00
362  3.6100000000000D+00  0.0000000000000D+00  0.0000000000000D+00
363  3.6200000000000D+00  0.0000000000000D+00  0.0000000000000D+00
364  3.6300000000000D+00  0.0000000000000D+00  0.0000000000000D+00
365  3.6400000000000D+00  0.0000000000000D+00  0.0000000000000D+00
366  3.6500000000000D+00  0.0000000000000D+00  0.0000000000000D+00
367  3.6600000000000D+00  0.0000000000000D+00  0.0000000000000D+00
368  3.6700000000000D+00  0.0000000000000D+00  0.0000000000000D+00
369  3.6800000000000D+00  0.0000000000000D+00  0.0000000000000D+00
370  3.6900000000000D+00  0.0000000000000D+00  0.0000000000000D+00
371  3.7000000000000D+00  0.0000000000000D+00  0.0000000000000D+00
372  3.7100000000000D+00  0.0000000000000D+00  0.0000000000000D+00
373  3.7200000000000D+00  0.0000000000000D+00  0.0000000000000D+00
374  3.7300000000000D+00  0.0000000000000D+00  0.0000000000000D+00
375  3.7400000000000D+00  0.0000000000000D+00  0.0000000000000D+00
376  3.7500000000000D+00  0.0000000000000D+00  0.0000000000000D+00
377  3.7600000000000D+00  0.0000000000000D+00  0.0000000000000D+00
378  3.7700000000000D+00  0.0000000000000D+00  0.0000000000000D+00
379  3.7800000000000D+00  0.0000000000000D+00  0.0000000000000D+00
380  3.7900000000000D+00  0.0000000000000D+00  0.0000000000000D+00
381  3.8000000000000D+00  0.0000000000000D+00  0.0000000000000D+00
382  3.8100000000000D+00  0.0000000000000D+00  0.0000000000000D+00
383  3.8200000000000D+00  0.0000000000000D+00  0.0000000000000D+00
384  3.8300000000000D+00  0.0000000000000D+00  0.0000000000000D+00
385  3.8400000000000D+00  0.0000000000000D+00  0.0000000000000D+00
386  3.8500000000000D+00  0.0000000000000D+00  0.0000000000000D+00
387  3.8600000000000D+00  0.0000000000000D+00  0.0000000000000D+00
388  3.8700000000000D+00  0.0000000000000D+00  0.0000000000000D+00
389  3.8800000000000D+00  0.0000000000000D+00  0.0000000000000D+00
390  3.8900000000000D+00  0.0000000000000D+00  0.0000000000000D+00
391  3.9000000000000D+00  0.0000000000000D+00  0.0000000000000D+00
392  3.9100000000000D+00  0.0000000000000D+00  0.0000000000000D+00
393  3.9200000000000D+00  0.0000000000000D+00  0.0000000000000D+00
394  3.9300000000000D+00  0.0000000000000D+00  0.0000000000000D+00
395  3.9400000000000D+00  0.0000000000000D+00  0.0000000000000D+00
396  3.9500000000000D+00  0.0000000000000D+00  0.0000000000000D+00
397  3.9600000000000D+00  0.0000000000000D+00  0.0000000000000D+00
398  3.9700000000000D+00  0.0000000000000D+00  0.0000000000000D+00
399  3.9800000000000D+00  0.0000000000000D+00  0.0000000000000D+00
400  3.9900000000000D+00  0.0000000000000D+00  0.0000000000000D+00
401  4.0000000000000D+00  0.0000000000000D+00  0.0000000000000D+00
402  4.0100000000000D+00  0.0000000000000D+00  0.0000000000000D+00
403  4.0200000000000D+00  0.0000000000000D+00  0.0000000000000D+00
404  4.0300000000000D+00  0.0000000000000D+00  0.0000000000000D+00
405  4.0400000000000D+00  0.0000000000000D+00  0.0000000000000D+00
406  4.0500000000000D+00  0.0000000000000D+00  0.0000000000000D+00
407  4.0600000000000D+00  0.0000000000000D+00  0.0000000000000D+00
408  4.0700000000000D+00  0.0000000000000D+00  0.0000000000000D+00
409  4.0800000000000D+00  0.0000000000000D+00  0.0000000000000D+00
410  4.0900000000000D+00  0.0000000000000D+00  0.0000000000000D+00
411  4.1000000000000D+00  0.0000000000000D+00  0.0000000000000D+00
412  4.1100000000000D+00  0.0000000000000D+00  0.0000000000000D+00
413  4.1200000000000D+00  0.0000000000000D+00  0.0000000000000D+00
414  4.1300000000000D+00  0.0000000000000D+00  0.0000000000000D+00
415  4.1400000000000D+00  0.0000000000000D+00  0.0000000000000D+00
416  4.1500000000000D+00  0.0000000000000D+00  0.0000000000000D+00
417  4.1600000000000D+00  0.0000000000000D+00  0.0000000000000D+00
418  4.1700000000000D+00  0.0000000000000D+00  0.0000000000000D+00
419  4.1800000000000D+00  0.0000000000000D+00  0.0000000000000D+00
420  4.1900000000000D+00  0.0000000000000D+00  0.0000000000000D+00
421  4.2000000000000D+00  0.0000000000000D+00  0.0000000000000D+00
422  4.2100000000000D+00  0.0000000000000D+00  0.0000000000000D+00
423  4.2200000000000D+00  0.0000000000000D+00  0.0000000000000D+00
424  4.2300000000000D+00  0.0000000000000D+00  0.0000000000000D+00
425  4.2400000000000D+00  0.0000000000000D+00  0.0000000000000D+00
426  4.2500000000000D+00  0.0000000000000D+00  0.0000000000000D+00
427  4.2600000000000D+00  0.0000000000000D+00  0.0000000000000D+00
428  4.2700000000000D+00  0.0000000000000D+00  0.0000000000000D+00
429  4.2800000000000D+00  0.0000000000000D+00  0.0000000000000D+00
430  4.2900000000000D+00  0.0000000000000D+00  0.0000000000000D+00
431  4.3000000000000D+00  0.0000000000000D+00  0.0000000000000D+00
432  4.3100000000000D+00  0.0000000000000D+00  0.0000000000000D+00
433  4.3200000000000D+00  0.0000000000000D+00  0.0000000000000D+00
434  4.3300000000000D+00  0.0000000000000D+00  0.0000000000000D+00
435  4.3400000000000D+00  0.0000000000000D+00  0.0000000000000D+00
436  4.3500000000000D+00  0.0000000000000D+00  0.0000000000000D+00
437  4.3600000000000D+00  0.0000000000000D+00  0.0000000000000D+00
438  4.3700000000000D+00  0.0000000000000D+00  0.0000000000000D+00
439  4.3800000000000D+00  0.0000000000000D+00  0.0000000000000D+00
440  4.3900000000000D+00  0.0000000000000D+00  0.0000000000000D+00
441  4.4000000000000D+00  0.0000000000000D+00  0.0000000000000D+00
442  4.4100000000000D+00  0.0000000000000D+00  0.0000000000000D+00
443  4.4200000000000D+00  0.0000000000000D+00  0.0000000000000D+00