Cr    ONCVPSP-3.3.0  r_core=   1.30591   1.30591   1.71817
24.0000     14.0000      180430    zatom,zion,pspd
8 -116133   2     4   600     0    pspcod,pspxc,lmax,lloc,mmax,r2well
5.99000000  5.00000000  0.00000000    rchrg fchrg qchrg
2     3     2     0    nproj
3     1           extension_switch
4     3     0    nprojso
0                        -1.2411079198272D+00  6.3333136537830D+00
1  0.0000000000000D+00  1.4670594183919D-08  1.5144752119056D-09
2  1.0000000000000D-02 -9.4389641399694D-02  7.3977150013600D-02
3  2.0000000000000D-02 -1.8785883802396D-01  1.4783687993289D-01
4  3.0000000000000D-02 -2.7949983222008D-01  2.2146111063371D-01
5  4.0000000000000D-02 -3.6843002569190D-01  2.9473046530813D-01
6  5.0000000000000D-02 -4.5380402579234D-01  3.6752367116646D-01
7  6.0000000000000D-02 -5.3482506242674D-01  4.3971702068935D-01
8  7.0000000000000D-02 -6.1075558335666D-01  5.1118391046409D-01
9  8.0000000000000D-02 -6.8092685036446D-01  5.8179447412459D-01
10  9.0000000000000D-02 -7.4474737658079D-01  6.5141532407345D-01
11  1.0000000000000D-01 -8.0171006597470D-01  7.1990941452910D-01
12  1.1000000000000D-01 -8.5139793918633D-01  7.8713603605176D-01
13  1.2000000000000D-01 -8.9348835513700D-01  8.5295094909948D-01
14  1.3000000000000D-01 -9.2775566472441D-01  9.1720666139956D-01
15  1.4000000000000D-01 -9.5407226092651D-01  9.7975285103906D-01
16  1.5000000000000D-01 -9.7240801829000D-01  1.0404369342358D+00
17  1.6000000000000D-01 -9.8282814355825D-01  1.0991047737989D+00
18  1.7000000000000D-01 -9.8548948758024D-01  1.1556015213836D+00
19  1.8000000000000D-01 -9.8063539612466D-01  1.2097725838364D+00
20  1.9000000000000D-01 -9.6858920330829D-01  1.2614647012742D+00
21  2.0000000000000D-01 -9.4974649555935D-01  1.3105271220837D+00
22  2.1000000000000D-01 -9.2456629593825D-01  1.3568128578195D+00
23  2.2000000000000D-01 -8.9356133782592D-01  1.4001799990610D+00
24  2.3000000000000D-01 -8.5728761311510D-01  1.4404930716916D+00
25  2.4000000000000D-01 -8.1633339280086D-01  1.4776244118273D+00
26  2.5000000000000D-01 -7.7130792702372D-01  1.5114555367659D+00
27  2.6000000000000D-01 -7.2283003699878D-01  1.5418784888695D+00
28  2.7000000000000D-01 -6.7151681275430D-01  1.5687971292545D+00
29  2.8000000000000D-01 -6.1797262816823D-01  1.5921283585274D+00
30  2.9000000000000D-01 -5.6277867845885D-01  1.6118032425964D+00
31  3.0000000000000D-01 -5.0648323515922D-01  1.6277680227683D+00
32  3.1000000000000D-01 -4.4959279985473D-01  1.6399849909155D+00
33  3.2000000000000D-01 -3.9256432082231D-01  1.6484332124236D+00
34  3.3000000000000D-01 -3.3579861648210D-01  1.6531090818891D+00
35  3.4000000000000D-01 -2.7963512660632D-01  1.6540266990857D+00
36  3.5000000000000D-01 -2.2434808694113D-01  1.6512180555101D+00
37  3.6000000000000D-01 -1.7014419572765D-01  1.6447330248176D+00
38  3.7000000000000D-01 -1.1716181205502D-01  1.6346391536013D+00
39  3.8000000000000D-01 -6.5471696547612D-02  1.6210212522073D+00
40  3.9000000000000D-01 -1.5079275126363D-02  1.6039807885563D+00
41  4.0000000000000D-01  3.4071622977101D-02  1.5836350912006D+00
42  4.1000000000000D-01  8.2093630579309D-02  1.5601163710245D+00
43  4.2000000000000D-01  1.2914941642423D-01  1.5335705740441D+00
44  4.3000000000000D-01  1.7544409844862D-01  1.5041560806189D+00
45  4.4000000000000D-01  2.2121665073132D-01  1.4720422690081D+00
46  4.5000000000000D-01  2.6673047911777D-01  1.4374079635289D+00
47  4.6000000000000D-01  3.1226335806948D-01  1.4004397895772D+00
48  4.7000000000000D-01  3.5809693535464D-01  1.3613304593941D+00
49  4.8000000000000D-01  4.0450602149188D-01  1.3202770136922D+00
50  4.9000000000000D-01  4.5174788715240D-01  1.2774790450568D+00
51  5.0000000000000D-01  5.0005179387312D-01  1.2331369293966D+00
52  5.1000000000000D-01  5.4960898135178D-01  1.1874500916265D+00
53  5.2000000000000D-01  6.0056332828855D-01  1.1406153312188D+00
54  5.3000000000000D-01  6.5300289327126D-01  1.0928252322668D+00
55  5.4000000000000D-01  7.0695252774210D-01  1.0442666812786D+00
56  5.5000000000000D-01  7.6236773484989D-01  9.9511951408491D-01
57  5.6000000000000D-01  8.1912992624344D-01  9.4555531102263D-01
58  5.7000000000000D-01  8.7704320408534D-01  8.9573635700555D-01
59  5.8000000000000D-01  9.3583276793744D-01  8.4581478021849D-01
60  5.9000000000000D-01  9.9514501654598D-01  7.9593188007320D-01
61  6.0000000000000D-01  1.0545493829492D+00  7.4621765173502D-01
62  6.1000000000000D-01  1.1135419089103D+00  6.9679051109448D-01
63  6.2000000000000D-01  1.1715505313682D+00  6.4775722050754D-01
64  6.3000000000000D-01  1.2279420206084D+00  5.9921301208847D-01
65  6.4000000000000D-01  1.2820304773666D+00  5.5124190183023D-01
66  6.5000000000000D-01  1.3330872648116D+00  5.0391718442244D-01
67  6.6000000000000D-01  1.3803522220922D+00  4.5730209542065D-01
68  6.7000000000000D-01  1.4230459790607D+00  4.1145062441109D-01
69  6.8000000000000D-01  1.4603831677459D+00  3.6640846010193D-01
70  6.9000000000000D-01  1.4915863054796D+00  3.2221404589168D-01
71  7.0000000000000D-01  1.5159001077254D+00  2.7889972246595D-01
72  7.1000000000000D-01  1.5326059758943D+00  2.3649293238399D-01
73  7.2000000000000D-01  1.5410363972234D+00  1.9501746048900D-01
74  7.3000000000000D-01  1.5405889901641D+00  1.5449468331411D-01
75  7.4000000000000D-01  1.5307399298986D+00  1.1494480048498D-01
76  7.5000000000000D-01  1.5110564945807D+00  7.6388021443180D-02
77  7.6000000000000D-01  1.4812084836926D+00  3.8845681634686D-02
78  7.7000000000000D-01  1.4409782753005D+00  2.3412636066106D-03
79  7.8000000000000D-01  1.3902693088418D+00 -3.3098699781376D-02
80  7.9000000000000D-01  1.3291128040492D+00 -6.7443860626948D-02
81  8.0000000000000D-01  1.2576725543483D+00 -1.0065944773697D-01
82  8.1000000000000D-01  1.1762476641063D+00 -1.3270582991203D-01
83  8.2000000000000D-01  1.0852731329482D+00 -1.6353826256055D-01
84  8.3000000000000D-01  9.8531822642704D-01 -1.9310682593848D-01
85  8.4000000000000D-01  8.7708261003550D-01 -2.2135655962244D-01
86  8.5000000000000D-01  7.6139026218708D-01 -2.4822779401764D-01
87  8.6000000000000D-01  6.3918122075854D-01 -2.7365667584059D-01
88  8.7000000000000D-01  5.1150125639020D-01 -2.9757588066799D-01
89  8.8000000000000D-01  3.7948960314458D-01 -3.1991550189371D-01
90  8.9000000000000D-01  2.4436491294051D-01 -3.4060410182520D-01
91  9.0000000000000D-01  1.0740963346397D-01 -3.5956990727413D-01
92  9.1000000000000D-01 -3.0046960425086D-02 -3.7674212889997D-01
93  9.2000000000000D-01 -1.6664682505860D-01 -3.9205238081430D-01
94  9.3000000000000D-01 -3.0102201675814D-01 -4.0543617459964D-01
95  9.4000000000000D-01 -4.3181407366461D-01 -4.1683445998674D-01
96  9.5000000000000D-01 -5.5769360005908D-01 -4.2619518300634D-01
97  9.6000000000000D-01 -6.7737973469991D-01 -4.3347483151743D-01
98  9.7000000000000D-01 -7.8965918216958D-01 -4.3863993763450D-01
99  9.8000000000000D-01 -8.9340448915857D-01 -4.4166850673988D-01
100  9.9000000000000D-01 -9.8759125627744D-01 -4.4255134350139D-01
101  1.0000000000000D+00 -1.0713139897507D+00 -4.4129324656158D-01
102  1.0100000000000D+00 -1.1438003162971D+00 -4.3791404532975D-01
103  1.0200000000000D+00 -1.2044233091937D+00 -4.3244945464824D-01
104  1.0300000000000D+00 -1.2527117017645D+00 -4.2495172580815D-01
105  1.0400000000000D+00 -1.2883577974553D+00 -4.1549007556409D-01
106  1.0500000000000D+00 -1.3112229228376D+00 -4.0415087840238D-01
107  1.0600000000000D+00 -1.3213403084218D+00 -3.9103761107043D-01
108  1.0700000000000D+00 -1.3189153237192D+00 -3.7627054243323D-01
109  1.0800000000000D+00 -1.3043230386007D+00 -3.5998616619276D-01
110  1.0900000000000D+00 -1.2781031250859D+00 -3.4233637813903D-01
111  1.1000000000000D+00 -1.2409521613061D+00 -3.2348740428697D-01
112  1.1100000000000D+00 -1.1937134387330D+00 -3.0361849013086D-01
113  1.1200000000000D+00 -1.1373644209804D+00 -2.8292036590897D-01
114  1.1300000000000D+00 -1.0730020416929D+00 -2.6159350664708D-01
115  1.1400000000000D+00 -1.0018260673179D+00 -2.3984620953853D-01
116  1.1500000000000D+00 -9.2512078236934D-01 -2.1789251436931D-01
117  1.1600000000000D+00 -8.4423528764426D-01 -1.9594999595318D-01
118  1.1700000000000D+00 -7.6056272841885D-01 -1.7423746017935D-01
119  1.1800000000000D+00 -6.7551878803099D-01 -1.5297257709979D-01
120  1.1900000000000D+00 -5.9051979616540D-01 -1.3236948586477D-01
121  1.2000000000000D+00 -5.0696081563245D-01 -1.1263640775431D-01
122  1.2100000000000D+00 -4.2619407029012D-01 -9.3973303439197D-02
123  1.2200000000000D+00 -3.4950807321537D-01 -7.6569610251228D-02
124  1.2300000000000D+00 -2.7810781326826D-01 -6.0602095146403D-02
125  1.2400000000000D+00 -2.1309633575253D-01 -4.6232856808204D-02
126  1.2500000000000D+00 -1.5545802788653D-01 -3.3607507845577D-02
127  1.2600000000000D+00 -1.0604391835933D-01 -2.2853567897574D-02
128  1.2700000000000D+00 -6.5584403062872D-02 -1.4084406456842D-02
129  1.2800000000000D+00 -3.4418681848109D-02 -7.3438250065356D-03
130  1.2900000000000D+00 -1.3392429067771D-02 -2.7927637202944D-03
131  1.3000000000000D+00 -3.0053078140641D-03 -5.3021447590095D-04
132  1.3100000000000D+00  1.0148028862235D-04  1.0829980796417D-04
133  1.3200000000000D+00  7.8540529268365D-05  2.6698485806407D-05
134  1.3300000000000D+00 -1.2405668052131D-04 -3.8282818613298D-05
135  1.3400000000000D+00  1.0603050418704D-05  3.8159200480197D-06
136  1.3500000000000D+00  1.2437084410224D-05  4.2437671028162D-06
137  1.3600000000000D+00  1.6354172324083D-06  4.4614163660957D-08
138  1.3700000000000D+00  0.0000000000000D+00  0.0000000000000D+00
139  1.3800000000000D+00  0.0000000000000D+00  0.0000000000000D+00
140  1.3900000000000D+00  0.0000000000000D+00  0.0000000000000D+00
141  1.4000000000000D+00  0.0000000000000D+00  0.0000000000000D+00
142  1.4100000000000D+00  0.0000000000000D+00  0.0000000000000D+00
143  1.4200000000000D+00  0.0000000000000D+00  0.0000000000000D+00
144  1.4300000000000D+00  0.0000000000000D+00  0.0000000000000D+00
145  1.4400000000000D+00  0.0000000000000D+00  0.0000000000000D+00
146  1.4500000000000D+00  0.0000000000000D+00  0.0000000000000D+00
147  1.4600000000000D+00  0.0000000000000D+00  0.0000000000000D+00
148  1.4700000000000D+00  0.0000000000000D+00  0.0000000000000D+00
149  1.4800000000000D+00  0.0000000000000D+00  0.0000000000000D+00
150  1.4900000000000D+00  0.0000000000000D+00  0.0000000000000D+00
151  1.5000000000000D+00  0.0000000000000D+00  0.0000000000000D+00
152  1.5100000000000D+00  0.0000000000000D+00  0.0000000000000D+00
153  1.5200000000000D+00  0.0000000000000D+00  0.0000000000000D+00
154  1.5300000000000D+00  0.0000000000000D+00  0.0000000000000D+00
155  1.5400000000000D+00  0.0000000000000D+00  0.0000000000000D+00
156  1.5500000000000D+00  0.0000000000000D+00  0.0000000000000D+00
157  1.5600000000000D+00  0.0000000000000D+00  0.0000000000000D+00
158  1.5700000000000D+00  0.0000000000000D+00  0.0000000000000D+00
159  1.5800000000000D+00  0.0000000000000D+00  0.0000000000000D+00
160  1.5900000000000D+00  0.0000000000000D+00  0.0000000000000D+00
161  1.6000000000000D+00  0.0000000000000D+00  0.0000000000000D+00
162  1.6100000000000D+00  0.0000000000000D+00  0.0000000000000D+00
163  1.6200000000000D+00  0.0000000000000D+00  0.0000000000000D+00
164  1.6300000000000D+00  0.0000000000000D+00  0.0000000000000D+00
165  1.6400000000000D+00  0.0000000000000D+00  0.0000000000000D+00
166  1.6500000000000D+00  0.0000000000000D+00  0.0000000000000D+00
167  1.6600000000000D+00  0.0000000000000D+00  0.0000000000000D+00
168  1.6700000000000D+00  0.0000000000000D+00  0.0000000000000D+00
169  1.6800000000000D+00  0.0000000000000D+00  0.0000000000000D+00
170  1.6900000000000D+00  0.0000000000000D+00  0.0000000000000D+00
171  1.7000000000000D+00  0.0000000000000D+00  0.0000000000000D+00
172  1.7100000000000D+00  0.0000000000000D+00  0.0000000000000D+00
173  1.7200000000000D+00  0.0000000000000D+00  0.0000000000000D+00
174  1.7300000000000D+00  0.0000000000000D+00  0.0000000000000D+00
175  1.7400000000000D+00  0.0000000000000D+00  0.0000000000000D+00
176  1.7500000000000D+00  0.0000000000000D+00  0.0000000000000D+00
177  1.7600000000000D+00  0.0000000000000D+00  0.0000000000000D+00
178  1.7700000000000D+00  0.0000000000000D+00  0.0000000000000D+00
179  1.7800000000000D+00  0.0000000000000D+00  0.0000000000000D+00
180  1.7900000000000D+00  0.0000000000000D+00  0.0000000000000D+00
181  1.8000000000000D+00  0.0000000000000D+00  0.0000000000000D+00
182  1.8100000000000D+00  0.0000000000000D+00  0.0000000000000D+00
183  1.8200000000000D+00  0.0000000000000D+00  0.0000000000000D+00
184  1.8300000000000D+00  0.0000000000000D+00  0.0000000000000D+00
185  1.8400000000000D+00  0.0000000000000D+00  0.0000000000000D+00
186  1.8500000000000D+00  0.0000000000000D+00  0.0000000000000D+00
187  1.8600000000000D+00  0.0000000000000D+00  0.0000000000000D+00
188  1.8700000000000D+00  0.0000000000000D+00  0.0000000000000D+00
189  1.8800000000000D+00  0.0000000000000D+00  0.0000000000000D+00
190  1.8900000000000D+00  0.0000000000000D+00  0.0000000000000D+00
191  1.9000000000000D+00  0.0000000000000D+00  0.0000000000000D+00
192  1.9100000000000D+00  0.0000000000000D+00  0.0000000000000D+00
193  1.9200000000000D+00  0.0000000000000D+00  0.0000000000000D+00
194  1.9300000000000D+00  0.0000000000000D+00  0.0000000000000D+00
195  1.9400000000000D+00  0.0000000000000D+00  0.0000000000000D+00
196  1.9500000000000D+00  0.0000000000000D+00  0.0000000000000D+00
197  1.9600000000000D+00  0.0000000000000D+00  0.0000000000000D+00
198  1.9700000000000D+00  0.0000000000000D+00  0.0000000000000D+00
199  1.9800000000000D+00  0.0000000000000D+00  0.0000000000000D+00
200  1.9900000000000D+00  0.0000000000000D+00  0.0000000000000D+00
201  2.0000000000000D+00  0.0000000000000D+00  0.0000000000000D+00
202  2.0100000000000D+00  0.0000000000000D+00  0.0000000000000D+00
203  2.0200000000000D+00  0.0000000000000D+00  0.0000000000000D+00
204  2.0300000000000D+00  0.0000000000000D+00  0.0000000000000D+00
205  2.0400000000000D+00  0.0000000000000D+00  0.0000000000000D+00
206  2.0500000000000D+00  0.0000000000000D+00  0.0000000000000D+00
207  2.0600000000000D+00  0.0000000000000D+00  0.0000000000000D+00
208  2.0700000000000D+00  0.0000000000000D+00  0.0000000000000D+00
209  2.0800000000000D+00  0.0000000000000D+00  0.0000000000000D+00
210  2.0900000000000D+00  0.0000000000000D+00  0.0000000000000D+00
211  2.1000000000000D+00  0.0000000000000D+00  0.0000000000000D+00
212  2.1100000000000D+00  0.0000000000000D+00  0.0000000000000D+00
213  2.1200000000000D+00  0.0000000000000D+00  0.0000000000000D+00
214  2.1300000000000D+00  0.0000000000000D+00  0.0000000000000D+00
215  2.1400000000000D+00  0.0000000000000D+00  0.0000000000000D+00
216  2.1500000000000D+00  0.0000000000000D+00  0.0000000000000D+00
217  2.1600000000000D+00  0.0000000000000D+00  0.0000000000000D+00
218  2.1700000000000D+00  0.0000000000000D+00  0.0000000000000D+00
219  2.1800000000000D+00  0.0000000000000D+00  0.0000000000000D+00
220  2.1900000000000D+00  0.0000000000000D+00  0.0000000000000D+00
221  2.2000000000000D+00  0.0000000000000D+00  0.0000000000000D+00
222  2.2100000000000D+00  0.0000000000000D+00  0.0000000000000D+00
223  2.2200000000000D+00  0.0000000000000D+00  0.0000000000000D+00
224  2.2300000000000D+00  0.0000000000000D+00  0.0000000000000D+00
225  2.2400000000000D+00  0.0000000000000D+00  0.0000000000000D+00
226  2.2500000000000D+00  0.0000000000000D+00  0.0000000000000D+00
227  2.2600000000000D+00  0.0000000000000D+00  0.0000000000000D+00
228  2.2700000000000D+00  0.0000000000000D+00  0.0000000000000D+00
229  2.2800000000000D+00  0.0000000000000D+00  0.0000000000000D+00
230  2.2900000000000D+00  0.0000000000000D+00  0.0000000000000D+00
231  2.3000000000000D+00  0.0000000000000D+00  0.0000000000000D+00
232  2.3100000000000D+00  0.0000000000000D+00  0.0000000000000D+00
233  2.3200000000000D+00  0.0000000000000D+00  0.0000000000000D+00
234  2.3300000000000D+00  0.0000000000000D+00  0.0000000000000D+00
235  2.3400000000000D+00  0.0000000000000D+00  0.0000000000000D+00
236  2.3500000000000D+00  0.0000000000000D+00  0.0000000000000D+00
237  2.3600000000000D+00  0.0000000000000D+00  0.0000000000000D+00
238  2.3700000000000D+00  0.0000000000000D+00  0.0000000000000D+00
239  2.3800000000000D+00  0.0000000000000D+00  0.0000000000000D+00
240  2.3900000000000D+00  0.0000000000000D+00  0.0000000000000D+00
241  2.4000000000000D+00  0.0000000000000D+00  0.0000000000000D+00
242  2.4100000000000D+00  0.0000000000000D+00  0.0000000000000D+00
243  2.4200000000000D+00  0.0000000000000D+00  0.0000000000000D+00
244  2.4300000000000D+00  0.0000000000000D+00  0.0000000000000D+00
245  2.4400000000000D+00  0.0000000000000D+00  0.0000000000000D+00
246  2.4500000000000D+00  0.0000000000000D+00  0.0000000000000D+00
247  2.4600000000000D+00  0.0000000000000D+00  0.0000000000000D+00
248  2.4700000000000D+00  0.0000000000000D+00  0.0000000000000D+00
249  2.4800000000000D+00  0.0000000000000D+00  0.0000000000000D+00
250  2.4900000000000D+00  0.0000000000000D+00  0.0000000000000D+00
251  2.5000000000000D+00  0.0000000000000D+00  0.0000000000000D+00
252  2.5100000000000D+00  0.0000000000000D+00  0.0000000000000D+00
253  2.5200000000000D+00  0.0000000000000D+00  0.0000000000000D+00
254  2.5300000000000D+00  0.0000000000000D+00  0.0000000000000D+00
255  2.5400000000000D+00  0.0000000000000D+00  0.0000000000000D+00
256  2.5500000000000D+00  0.0000000000000D+00  0.0000000000000D+00
257  2.5600000000000D+00  0.0000000000000D+00  0.0000000000000D+00
258  2.5700000000000D+00  0.0000000000000D+00  0.0000000000000D+00
259  2.5800000000000D+00  0.0000000000000D+00  0.0000000000000D+00
260  2.5900000000000D+00  0.0000000000000D+00  0.0000000000000D+00
261  2.6000000000000D+00  0.0000000000000D+00  0.0000000000000D+00
262  2.6100000000000D+00  0.0000000000000D+00  0.0000000000000D+00
263  2.6200000000000D+00  0.0000000000000D+00  0.0000000000000D+00
264  2.6300000000000D+00  0.0000000000000D+00  0.0000000000000D+00
265  2.6400000000000D+00  0.0000000000000D+00  0.0000000000000D+00
266  2.6500000000000D+00  0.0000000000000D+00  0.0000000000000D+00
267  2.6600000000000D+00  0.0000000000000D+00  0.0000000000000D+00
268  2.6700000000000D+00  0.0000000000000D+00  0.0000000000000D+00
269  2.6800000000000D+00  0.0000000000000D+00  0.0000000000000D+00
270  2.6900000000000D+00  0.0000000000000D+00  0.0000000000000D+00
271  2.7000000000000D+00  0.0000000000000D+00  0.0000000000000D+00
272  2.7100000000000D+00  0.0000000000000D+00  0.0000000000000D+00
273  2.7200000000000D+00  0.0000000000000D+00  0.0000000000000D+00
274  2.7300000000000D+00  0.0000000000000D+00  0.0000000000000D+00
275  2.7400000000000D+00  0.0000000000000D+00  0.0000000000000D+00
276  2.7500000000000D+00  0.0000000000000D+00  0.0000000000000D+00
277  2.7600000000000D+00  0.0000000000000D+00  0.0000000000000D+00
278  2.7700000000000D+00  0.0000000000000D+00  0.0000000000000D+00
279  2.7800000000000D+00  0.0000000000000D+00  0.0000000000000D+00
280  2.7900000000000D+00  0.0000000000000D+00  0.0000000000000D+00
281  2.8000000000000D+00  0.0000000000000D+00  0.0000000000000D+00
282  2.8100000000000D+00  0.0000000000000D+00  0.0000000000000D+00
283  2.8200000000000D+00  0.0000000000000D+00  0.0000000000000D+00
284  2.8300000000000D+00  0.0000000000000D+00  0.0000000000000D+00
285  2.8400000000000D+00  0.0000000000000D+00  0.0000000000000D+00
286  2.8500000000000D+00  0.0000000000000D+00  0.0000000000000D+00
287  2.8600000000000D+00  0.0000000000000D+00  0.0000000000000D+00
288  2.8700000000000D+00  0.0000000000000D+00  0.0000000000000D+00
289  2.8800000000000D+00  0.0000000000000D+00  0.0000000000000D+00
290  2.8900000000000D+00  0.0000000000000D+00  0.0000000000000D+00
291  2.9000000000000D+00  0.0000000000000D+00  0.0000000000000D+00
292  2.9100000000000D+00  0.0000000000000D+00  0.0000000000000D+00
293  2.9200000000000D+00  0.0000000000000D+00  0.0000000000000D+00
294  2.9300000000000D+00  0.0000000000000D+00  0.0000000000000D+00
295  2.9400000000000D+00  0.0000000000000D+00  0.0000000000000D+00
296  2.9500000000000D+00  0.0000000000000D+00  0.0000000000000D+00
297  2.9600000000000D+00  0.0000000000000D+00  0.0000000000000D+00
298  2.9700000000000D+00  0.0000000000000D+00  0.0000000000000D+00
299  2.9800000000000D+00  0.0000000000000D+00  0.0000000000000D+00
300  2.9900000000000D+00  0.0000000000000D+00  0.0000000000000D+00
301  3.0000000000000D+00  0.0000000000000D+00  0.0000000000000D+00
302  3.0100000000000D+00  0.0000000000000D+00  0.0000000000000D+00
303  3.0200000000000D+00  0.0000000000000D+00  0.0000000000000D+00
304  3.0300000000000D+00  0.0000000000000D+00  0.0000000000000D+00
305  3.0400000000000D+00  0.0000000000000D+00  0.0000000000000D+00
306  3.0500000000000D+00  0.0000000000000D+00  0.0000000000000D+00
307  3.0600000000000D+00  0.0000000000000D+00  0.0000000000000D+00
308  3.0700000000000D+00  0.0000000000000D+00  0.0000000000000D+00
309  3.0800000000000D+00  0.0000000000000D+00  0.0000000000000D+00
310  3.0900000000000D+00  0.0000000000000D+00  0.0000000000000D+00
311  3.1000000000000D+00  0.0000000000000D+00  0.0000000000000D+00
312  3.1100000000000D+00  0.0000000000000D+00  0.0000000000000D+00
313  3.1200000000000D+00  0.0000000000000D+00  0.0000000000000D+00
314  3.1300000000000D+00  0.0000000000000D+00  0.0000000000000D+00
315  3.1400000000000D+00  0.0000000000000D+00  0.0000000000000D+00
316  3.1500000000000D+00  0.0000000000000D+00  0.0000000000000D+00
317  3.1600000000000D+00  0.0000000000000D+00  0.0000000000000D+00
318  3.1700000000000D+00  0.0000000000000D+00  0.0000000000000D+00
319  3.1800000000000D+00  0.0000000000000D+00  0.0000000000000D+00
320  3.1900000000000D+00  0.0000000000000D+00  0.0000000000000D+00
321  3.2000000000000D+00  0.0000000000000D+00  0.0000000000000D+00
322  3.2100000000000D+00  0.0000000000000D+00  0.0000000000000D+00
323  3.2200000000000D+00  0.0000000000000D+00  0.0000000000000D+00
324  3.2300000000000D+00  0.0000000000000D+00  0.0000000000000D+00
325  3.2400000000000D+00  0.0000000000000D+00  0.0000000000000D+00
326  3.2500000000000D+00  0.0000000000000D+00  0.0000000000000D+00
327  3.2600000000000D+00  0.0000000000000D+00  0.0000000000000D+00
328  3.2700000000000D+00  0.0000000000000D+00  0.0000000000000D+00
329  3.2800000000000D+00  0.0000000000000D+00  0.0000000000000D+00
330  3.2900000000000D+00  0.0000000000000D+00  0.0000000000000D+00
331  3.3000000000000D+00  0.0000000000000D+00  0.0000000000000D+00
332  3.3100000000000D+00  0.0000000000000D+00  0.0000000000000D+00
333  3.3200000000000D+00  0.0000000000000D+00  0.0000000000000D+00
334  3.3300000000000D+00  0.0000000000000D+00  0.0000000000000D+00
335  3.3400000000000D+00  0.0000000000000D+00  0.0000000000000D+00
336  3.3500000000000D+00  0.0000000000000D+00  0.0000000000000D+00
337  3.3600000000000D+00  0.0000000000000D+00  0.0000000000000D+00
338  3.3700000000000D+00  0.0000000000000D+00  0.0000000000000D+00
339  3.3800000000000D+00  0.0000000000000D+00  0.0000000000000D+00
340  3.3900000000000D+00  0.0000000000000D+00  0.0000000000000D+00
341  3.4000000000000D+00  0.0000000000000D+00  0.0000000000000D+00
342  3.4100000000000D+00  0.0000000000000D+00  0.0000000000000D+00
343  3.4200000000000D+00  0.0000000000000D+00  0.0000000000000D+00
344  3.4300000000000D+00  0.0000000000000D+00  0.0000000000000D+00
345  3.4400000000000D+00  0.0000000000000D+00  0.0000000000000D+00
346  3.4500000000000D+00  0.0000000000000D+00  0.0000000000000D+00
347  3.4600000000000D+00  0.0000000000000D+00  0.0000000000000D+00
348  3.4700000000000D+00  0.0000000000000D+00  0.0000000000000D+00
349  3.4800000000000D+00  0.0000000000000D+00  0.0000000000000D+00
350  3.4900000000000D+00  0.0000000000000D+00  0.0000000000000D+00
351  3.5000000000000D+00  0.0000000000000D+00  0.0000000000000D+00
352  3.5100000000000D+00  0.0000000000000D+00  0.0000000000000D+00
353  3.5200000000000D+00  0.0000000000000D+00  0.0000000000000D+00
354  3.5300000000000D+00  0.0000000000000D+00  0.0000000000000D+00
355  3.5400000000000D+00  0.0000000000000D+00  0.0000000000000D+00
356  3.5500000000000D+00  0.0000000000000D+00  0.0000000000000D+00
357  3.5600000000000D+00  0.0000000000000D+00  0.0000000000000D+00
358  3.5700000000000D+00  0.0000000000000D+00  0.0000000000000D+00
359  3.5800000000000D+00  0.0000000000000D+00  0.0000000000000D+00
360  3.5900000000000D+00  0.0000000000000D+00  0.0000000000000D+00
361  3.6000000000000D+00  0.0000000000000D+00  0.0000000000000D+00
362  3.6100000000000D+00  0.0000000000000D+00  0.0000000000000D+00
363  3.6200000000000D+00  0.0000000000000D+00  0.0000000000000D+00
364  3.6300000000000D+00  0.0000000000000D+00  0.0000000000000D+00
365  3.6400000000000D+00  0.0000000000000D+00  0.0000000000000D+00
366  3.6500000000000D+00  0.0000000000000D+00  0.0000000000000D+00
367  3.6600000000000D+00  0.0000000000000D+00  0.0000000000000D+00
368  3.6700000000000D+00  0.0000000000000D+00  0.0000000000000D+00
369  3.6800000000000D+00  0.0000000000000D+00  0.0000000000000D+00
370  3.6900000000000D+00  0.0000000000000D+00  0.0000000000000D+00
371  3.7000000000000D+00  0.0000000000000D+00  0.0000000000000D+00
372  3.7100000000000D+00  0.0000000000000D+00  0.0000000000000D+00
373  3.7200000000000D+00  0.0000000000000D+00  0.0000000000000D+00
374  3.7300000000000D+00  0.0000000000000D+00  0.0000000000000D+00
375  3.7400000000000D+00  0.0000000000000D+00  0.0000000000000D+00
376  3.7500000000000D+00  0.0000000000000D+00  0.0000000000000D+00
377  3.7600000000000D+00  0.0000000000000D+00  0.0000000000000D+00
378  3.7700000000000D+00  0.0000000000000D+00  0.0000000000000D+00
379  3.7800000000000D+00  0.0000000000000D+00  0.0000000000000D+00
380  3.7900000000000D+00  0.0000000000000D+00  0.0000000000000D+00
381  3.8000000000000D+00  0.0000000000000D+00  0.0000000000000D+00
382  3.8100000000000D+00  0.0000000000000D+00  0.0000000000000D+00
383  3.8200000000000D+00  0.0000000000000D+00  0.0000000000000D+00
384  3.8300000000000D+00  0.0000000000000D+00  0.0000000000000D+00
385  3.8400000000000D+00  0.0000000000000D+00  0.0000000000000D+00
386  3.8500000000000D+00  0.0000000000000D+00  0.0000000000000D+00
387  3.8600000000000D+00  0.0000000000000D+00  0.0000000000000D+00
388  3.8700000000000D+00  0.0000000000000D+00  0.0000000000000D+00
389  3.8800000000000D+00  0.0000000000000D+00  0.0000000000000D+00
390  3.8900000000000D+00  0.0000000000000D+00  0.0000000000000D+00
391  3.9000000000000D+00  0.0000000000000D+00  0.0000000000000D+00
392  3.9100000000000D+00  0.0000000000000D+00  0.0000000000000D+00
393  3.9200000000000D+00  0.0000000000000D+00  0.0000000000000D+00
394  3.9300000000000D+00  0.0000000000000D+00  0.0000000000000D+00
395  3.9400000000000D+00  0.0000000000000D+00  0.0000000000000D+00
396  3.9500000000000D+00  0.0000000000000D+00  0.0000000000000D+00
397  3.9600000000000D+00  0.0000000000000D+00  0.0000000000000D+00
398  3.9700000000000D+00  0.0000000000000D+00  0.0000000000000D+00
399  3.9800000000000D+00  0.0000000000000D+00  0.0000000000000D+00
400  3.9900000000000D+00  0.0000000000000D+00  0.0000000000000D+00
401  4.0000000000000D+00  0.0000000000000D+00  0.0000000000000D+00
402  4.0100000000000D+00  0.0000000000000D+00  0.0000000000000D+00
403  4.0200000000000D+00  0.0000000000000D+00  0.0000000000000D+00
404  4.0300000000000D+00  0.0000000000000D+00  0.0000000000000D+00
405  4.0400000000000D+00  0.0000000000000D+00  0.0000000000000D+00
406  4.0500000000000D+00  0.0000000000000D+00  0.0000000000000D+00
407  4.0600000000000D+00  0.0000000000000D+00  0.0000000000000D+00
408  4.0700000000000D+00  0.0000000000000D+00  0.0000000000000D+00
409  4.0800000000000D+00  0.0000000000000D+00  0.0000000000000D+00
410  4.0900000000000D+00  0.0000000000000D+00  0.0000000000000D+00
411  4.1000000000000D+00  0.0000000000000D+00  0.0000000000000D+00
412  4.1100000000000D+00  0.0000000000000D+00  0.0000000000000D+00
413  4.1200000000000D+00  0.0000000000000D+00  0.0000000000000D+00
414  4.1300000000000D+00  0.0000000000000D+00  0.0000000000000D+00
415  4.1400000000000D+00  0.0000000000000D+00  0.0000000000000D+00
416  4.1500000000000D+00  0.0000000000000D+00  0.0000000000000D+00
417  4.1600000000000D+00  0.0000000000000D+00  0.0000000000000D+00
418  4.1700000000000D+00  0.0000000000000D+00  0.0000000000000D+00
419  4.1800000000000D+00  0.0000000000000D+00  0.0000000000000D+00
420  4.1900000000000D+00  0.0000000000000D+00  0.0000000000000D+00
421  4.2000000000000D+00  0.0000000000000D+00  0.0000000000000D+00
422  4.2100000000000D+00  0.0000000000000D+00  0.0000000000000D+00
423  4.2200000000000D+00  0.0000000000000D+00  0.0000000000000D+00
424  4.2300000000000D+00  0.0000000000000D+00  0.0000000000000D+00
425  4.2400000000000D+00  0.0000000000000D+00  0.0000000000000D+00
426  4.2500000000000D+00  0.0000000000000D+00  0.0000000000000D+00
427  4.2600000000000D+00  0.0000000000000D+00  0.0000000000000D+00
428  4.2700000000000D+00  0.0000000000000D+00  0.0000000000000D+00
429  4.2800000000000D+00  0.0000000000000D+00  0.0000000000000D+00
430  4.2900000000000D+00  0.0000000000000D+00  0.0000000000000D+00
431  4.3000000000000D+00  0.0000000000000D+00  0.0000000000000D+00
432  4.3100000000000D+00  0.0000000000000D+00  0.0000000000000D+00
433  4.3200000000000D+00  0.0000000000000D+00  0.0000000000000D+00
434  4.3300000000000D+00  0.0000000000000D+00  0.0000000000000D+00
435  4.3400000000000D+00  0.0000000000000D+00  0.0000000000000D+00
436  4.3500000000000D+00  0.0000000000000D+00  0.0000000000000D+00
437  4.3600000000000D+00  0.0000000000000D+00  0.0000000000000D+00
438  4.3700000000000D+00  0.0000000000000D+00  0.0000000000000D+00
439  4.3800000000000D+00  0.0000000000000D+00  0.0000000000000D+00
440  4.3900000000000D+00  0.0000000000000D+00  0.0000000000000D+00
441  4.4000000000000D+00  0.0000000000000D+00  0.0000000000000D+00
442  4.4100000000000D+00  0.0000000000000D+00  0.0000000000000D+00
443  4.4200000000000D+00  0.0000000000000D+00  0.0000000000000D+00