Cs    ONCVPSP-3.3.0  r_core=   2.27353   1.85623   2.01788   1.90105
55.0000      9.0000      180429    zatom,zion,pspd
8 -116133   3     4   600     0    pspcod,pspxc,lmax,lloc,mmax,r2well
5.99000000  5.00000000  0.00000000    rchrg fchrg qchrg
2     4     4     2    nproj
3     1           extension_switch
4     4     4    nprojso
0                         7.6653254434814D-01  6.2133856378254D+00
1  0.0000000000000D+00 -8.5858941484274D-12  3.4733049769642D-12
2  1.0000000000000D-02  1.1357950827664D-03  2.2588863903984D-02
3  2.0000000000000D-02  2.2362734515631D-03  4.5184682048317D-02
4  3.0000000000000D-02  3.2663053573404D-03  6.7794333026366D-02
5  4.0000000000000D-02  4.1911342804568D-03  9.0424544421983D-02
6  5.0000000000000D-02  4.9765617964684D-03  1.1308181801500D-01
7  6.0000000000000D-02  5.5891303492356D-03  1.3577235583660D-01
8  7.0000000000000D-02  5.9963032438148D-03  1.5850198735376D-01
9  8.0000000000000D-02  6.1666411801836D-03  1.8127609805855D-01
10  9.0000000000000D-02  6.0699746594991D-03  2.0409955973378D-01
11  1.0000000000000D-01  5.6775716073592D-03  2.2697666266114D-01
12  1.1000000000000D-01  4.9622995733745D-03  2.4991105003229D-01
13  1.2000000000000D-01  3.8987818831611D-03  2.7290565481628D-01
14  1.3000000000000D-01  2.4635471377801D-03  2.9596263932920D-01
15  1.4000000000000D-01  6.3517147632009D-04  3.1908333774361D-01
16  1.5000000000000D-01 -1.6055869598702D-03  3.4226820176600D-01
17  1.6000000000000D-01 -4.2756618983540D-03  3.6551674970088D-01
18  1.7000000000000D-01 -7.3895616528045D-03  3.8882751910925D-01
19  1.8000000000000D-01 -1.0959261168893D-02  4.1219802325812D-01
20  1.9000000000000D-01 -1.4994103851627D-02  4.3562471154560D-01
21  2.0000000000000D-01 -1.9500713595725D-02  4.5910293407378D-01
22  2.1000000000000D-01 -2.4482917407593D-02  4.8262691052811D-01
23  2.2000000000000D-01 -2.9941678973200D-02  5.0618970350850D-01
24  2.3000000000000D-01 -3.5875043490528D-02  5.2978319644302D-01
25  2.4000000000000D-01 -4.2278094048137D-02  5.5339807620023D-01
26  2.5000000000000D-01 -4.9142919793478D-02  5.7702382050114D-01
27  2.6000000000000D-01 -5.6458596095141D-02  6.0064869021587D-01
28  2.7000000000000D-01 -6.4211176863173D-02  6.2425972661447D-01
29  2.8000000000000D-01 -7.2383699150512D-02  6.4784275362475D-01
30  2.9000000000000D-01 -8.0956200116678D-02  6.7138238513343D-01
31  3.0000000000000D-01 -8.9905746392519D-02  6.9486203735014D-01
32  3.1000000000000D-01 -9.9206475841684D-02  7.1826394623673D-01
33  3.2000000000000D-01 -1.0882965167132D-01  7.4156918998733D-01
34  3.3000000000000D-01 -1.1874372880056D-01  7.6475771652699D-01
35  3.4000000000000D-01 -1.2891443235196D-01  7.8780837598003D-01
36  3.5000000000000D-01 -1.3930484808683D-01  8.1069895804139D-01
37  3.6000000000000D-01 -1.4987552456223D-01  8.3340623416755D-01
38  3.7000000000000D-01 -1.6058458674361D-01  8.5590600448631D-01
39  3.8000000000000D-01 -1.7138786076458D-01  8.7817314930774D-01
40  3.9000000000000D-01 -1.8223900948241D-01  9.0018168510246D-01
41  4.0000000000000D-01 -1.9308967843675D-01  9.2190482479644D-01
42  4.1000000000000D-01 -2.0388965177786D-01  9.4331504221593D-01
43  4.2000000000000D-01 -2.1458701769096D-01  9.6438414050057D-01
44  4.3000000000000D-01 -2.2512834280492D-01  9.8508332428727D-01
45  4.4000000000000D-01 -2.3545885503570D-01  1.0053832754531D+00
46  4.5000000000000D-01 -2.4552263427947D-01  1.0252542321916D+00
47  4.6000000000000D-01 -2.5526281033595D-01  1.0446660711822D+00
48  4.7000000000000D-01 -2.6462176740976D-01  1.0635883926024D+00
49  4.8000000000000D-01 -2.7354135450704D-01  1.0819906077167D+00
50  4.9000000000000D-01 -2.8196310101606D-01  1.0998420287683D+00
51  5.0000000000000D-01 -2.8982843673348D-01  1.1171119608866D+00
52  5.1000000000000D-01 -2.9707891557428D-01  1.1337697957158D+00
53  5.2000000000000D-01 -3.0365644218099D-01  1.1497851064607D+00
54  5.3000000000000D-01 -3.0950350062856D-01  1.1651277440362D+00
55  5.4000000000000D-01 -3.1456338440484D-01  1.1797679340032D+00
56  5.5000000000000D-01 -3.1878042683169D-01  1.1936763739668D+00
57  5.6000000000000D-01 -3.2210023108149D-01  1.2068243311057D+00
58  5.7000000000000D-01 -3.2446989893464D-01  1.2191837395023D+00
59  5.8000000000000D-01 -3.2583825741880D-01  1.2307272969359D+00
60  5.9000000000000D-01 -3.2615608246780D-01  1.2414285608048D+00
61  6.0000000000000D-01 -3.2537631873926D-01  1.2512620428379D+00
62  6.1000000000000D-01 -3.2345429473375D-01  1.2602033022617D+00
63  6.2000000000000D-01 -3.2034793236510D-01  1.2682290370874D+00
64  6.3000000000000D-01 -3.1601795014224D-01  1.2753171731885D+00
65  6.4000000000000D-01 -3.1042805913599D-01  1.2814469508418D+00
66  6.5000000000000D-01 -3.0354515092118D-01  1.2865990084120D+00
67  6.6000000000000D-01 -2.9533947670423D-01  1.2907554628655D+00
68  6.7000000000000D-01 -2.8578481686979D-01  1.2938999868083D+00
69  6.8000000000000D-01 -2.7485864020557D-01  1.2960178817512D+00
70  6.9000000000000D-01 -2.6254225209467D-01  1.2970961473152D+00
71  7.0000000000000D-01 -2.4882093099661D-01  1.2971235461036D+00
72  7.1000000000000D-01 -2.3368405257356D-01  1.2960906639774D+00
73  7.2000000000000D-01 -2.1712520085680D-01  1.2939899654852D+00
74  7.3000000000000D-01 -1.9914226588915D-01  1.2908158442132D+00
75  7.4000000000000D-01 -1.7973752732281D-01  1.2865646678368D+00
76  7.5000000000000D-01 -1.5891772349817D-01  1.2812348176709D+00
77  7.6000000000000D-01 -1.3669410557789D-01  1.2748267225344D+00
78  7.7000000000000D-01 -1.1308247636068D-01  1.2673428867609D+00
79  7.8000000000000D-01 -8.8103213453024D-02  1.2587879122091D+00
80  7.9000000000000D-01 -6.1781276530572D-02  1.2491685141424D+00
81  8.0000000000000D-01 -3.4146198478445D-02  1.2384935308720D+00
82  8.1000000000000D-01 -5.2320602567388D-03  1.2267739270736D+00
83  8.2000000000000D-01  2.4922550602672D-02  1.2140227907140D+00
84  8.3000000000000D-01  5.6274597902264D-02  1.2002553235413D+00
85  8.4000000000000D-01  8.8776671060570D-02  1.1854888251177D+00
86  8.5000000000000D-01  1.2237707568059D-01  1.1697426703951D+00
87  8.6000000000000D-01  1.5701994025387D-01  1.1530382808556D+00
88  8.7000000000000D-01  1.9264533878704D-01  1.1353990892621D+00
89  8.8000000000000D-01  2.2918942907522D-01  1.1168504980884D+00
90  8.9000000000000D-01  2.6658460628526D-01  1.0974198317176D+00
91  9.0000000000000D-01  3.0475967145019D-01  1.0771362825232D+00
92  9.1000000000000D-01  3.4364001441614D-01  1.0560308509678D+00
93  9.2000000000000D-01  3.8314781072396D-01  1.0341362798756D+00
94  9.3000000000000D-01  4.2320223184932D-01  1.0114869830595D+00
95  9.4000000000000D-01  4.6371966816971D-01  9.8811896849938D-01
96  9.5000000000000D-01  5.0461396397146D-01  9.6406975629402D-01
97  9.6000000000000D-01  5.4579666375832D-01  9.3937829162486D-01
98  9.7000000000000D-01  5.8717726907329D-01  9.1408485299029D-01
99  9.8000000000000D-01  6.2866350499738D-01  8.8823095598730D-01
100  9.9000000000000D-01  6.7016159544511D-01  8.6185925293417D-01
101  1.0000000000000D+00  7.1157654633477D-01  8.3501342864418D-01
102  1.0100000000000D+00  7.5281243567335D-01  8.0773809267550D-01
103  1.0200000000000D+00  7.9377270956099D-01  7.8007866839632D-01
104  1.0300000000000D+00  8.3436048308805D-01  7.5208127921767D-01
105  1.0400000000000D+00  8.7447884507231D-01  7.2379263235673D-01
106  1.0500000000000D+00  9.1403116555713D-01  6.9525990050543D-01
107  1.0600000000000D+00  9.5292140497433D-01  6.6653060178672D-01
108  1.0700000000000D+00  9.9105442385908D-01  6.3765247838904D-01
109  1.0800000000000D+00  1.0283362919930D+00  6.0867337427581D-01
110  1.0900000000000D+00  1.0646745958452D+00  5.7964111237083D-01
111  1.1000000000000D+00  1.0999787431784D+00  5.5060337162440D-01
112  1.1100000000000D+00  1.1341602636886D+00  5.2160756436631D-01
113  1.1200000000000D+00  1.1671331045552D+00  4.9270071435175D-01
114  1.1300000000000D+00  1.1988139197885D+00  4.6392933590536D-01
115  1.1400000000000D+00  1.2291223522760D+00  4.3533931456544D-01
116  1.1500000000000D+00  1.2579813074504D+00  4.0697578962619D-01
117  1.1600000000000D+00  1.2853172175284D+00  3.7888303896896D-01
118  1.1700000000000D+00  1.3110602952953D+00  3.5110436656737D-01
119  1.1800000000000D+00  1.3351447764413D+00  3.2368199304207D-01
120  1.1900000000000D+00  1.3575091494998D+00  2.9665694962985D-01
121  1.2000000000000D+00  1.3780963724808D+00  2.7006897591811D-01
122  1.2100000000000D+00  1.3968540753170D+00  2.4395642168964D-01
123  1.2200000000000D+00  1.4137347473172D+00  2.1835615319994D-01
124  1.2300000000000D+00  1.4286959088635D+00  1.9330346419623D-01
125  1.2400000000000D+00  1.4417002666322D+00  1.6883199197419D-01
126  1.2500000000000D+00  1.4527158516887D+00  1.4497363874808D-01
127  1.2600000000000D+00  1.4617161398800D+00  1.2175849858548D-01
128  1.2700000000000D+00  1.4686801539900D+00  9.9214790146387D-02
129  1.2800000000000D+00  1.4735925471880D+00  7.7368795445408D-02
130  1.2900000000000D+00  1.4764436674114D+00  5.6244804820968D-02
131  1.3000000000000D+00  1.4772296023414D+00  3.5865068289188D-02
132  1.3100000000000D+00  1.4759522047154D+00  1.6249753434598D-02
133  1.3200000000000D+00  1.4726190978445D+00 -2.5830900527346D-03
134  1.3300000000000D+00  1.4672436611943D+00 -2.0617559078496D-02
135  1.3400000000000D+00  1.4598449960085D+00 -3.7839919009753D-02
136  1.3500000000000D+00  1.4504478710816D+00 -5.4238618671546D-02
137  1.3600000000000D+00  1.4390826487135D+00 -6.9804298417588D-02
138  1.3700000000000D+00  1.4257851911191D+00 -8.4529791296728D-02
139  1.3800000000000D+00  1.4105967475656D+00 -9.8410117338662D-02
140  1.3900000000000D+00  1.3935638225047D+00 -1.1144247097862D-01
141  1.4000000000000D+00  1.3747380252368D+00 -1.2362620173311D-01
142  1.4100000000000D+00  1.3541759014912D+00 -1.3496278818710D-01
143  1.4200000000000D+00  1.3319387475148D+00 -1.4545580542302D-01
144  1.4300000000000D+00  1.3080924073380D+00 -1.5511088605115D-01
145  1.4400000000000D+00  1.2827070537741D+00 -1.6393567495842D-01
146  1.4500000000000D+00  1.2558569540500D+00 -1.7193977801649D-01
147  1.4600000000000D+00  1.2276202207291D+00 -1.7913470490357D-01
148  1.4700000000000D+00  1.1980785488554D+00 -1.8553380629157D-01
149  1.4800000000000D+00  1.1673169402117D+00 -1.9115220563926D-01
150  1.4900000000000D+00  1.1354234155693D+00 -1.9600672582261D-01
151  1.5000000000000D+00  1.1024887160388D+00 -2.0011581092690D-01
152  1.5100000000000D+00  1.0686059943874D+00 -2.0349944342578D-01
153  1.5200000000000D+00  1.0338704975275D+00 -2.0617905711174D-01
154  1.5300000000000D+00  9.9837924113712D-01 -2.0817744604204D-01
155  1.5400000000000D+00  9.6223067759640D-01 -2.0951866985647D-01
156  1.5500000000000D+00  9.2552435831116D-01 -2.1022795578303D-01
157  1.5600000000000D+00  8.8836059158696D-01 -2.1033159767682D-01
158  1.5700000000000D+00  8.5084009716824D-01 -2.0985685244008D-01
159  1.5800000000000D+00  8.1306365862362D-01 -2.0883183416957D-01
160  1.5900000000000D+00  7.7513177465107D-01 -2.0728540638517D-01
161  1.6000000000000D+00  7.3714431054301D-01 -2.0524707269994D-01
162  1.6100000000000D+00  6.9920015077393D-01 -2.0274686626762D-01
163  1.6200000000000D+00  6.6139685401689D-01 -1.9981523838874D-01
164  1.6300000000000D+00  6.2383031142197D-01 -1.9648294658076D-01
165  1.6400000000000D+00  5.8659440948221D-01 -1.9278094250706D-01
166  1.6500000000000D+00  5.4978069820743D-01 -1.8874026003894D-01
167  1.6600000000000D+00  5.1347806590413D-01 -1.8439190384738D-01
168  1.6700000000000D+00  4.7777242116510D-01 -1.7976673876544D-01
169  1.6800000000000D+00  4.4274638331931D-01 -1.7489538031281D-01
170  1.6900000000000D+00  4.0847898180464D-01 -1.6980808658356D-01
171  1.7000000000000D+00  3.7504536566953D-01 -1.6453465188227D-01
172  1.7100000000000D+00  3.4251652347911D-01 -1.5910430225709D-01
173  1.7200000000000D+00  3.1095901481692D-01 -1.5354559331541D-01
174  1.7300000000000D+00  2.8043471340160D-01 -1.4788631039842D-01
175  1.7400000000000D+00  2.5100056305261D-01 -1.4215337151610D-01
176  1.7500000000000D+00  2.2270834617557D-01 -1.3637273301918D-01
177  1.7600000000000D+00  1.9560446612827D-01 -1.3056929845000D-01
178  1.7700000000000D+00  1.6972974267913D-01 -1.2476683041495D-01
179  1.7800000000000D+00  1.4511922214740D-01 -1.1898786599143D-01
180  1.7900000000000D+00  1.2180200087391D-01 -1.1325363534487D-01
181  1.8000000000000D+00  9.9801057758362D-02 -1.0758398284008D-01
182  1.8100000000000D+00  7.9133134156150D-02 -1.0199729878210D-01
183  1.8200000000000D+00  5.9808515762705D-02 -9.6510430383670D-02
184  1.8300000000000D+00  4.1831109419393D-02 -9.1138658840913D-02
185  1.8400000000000D+00  2.5198219466613D-02 -8.5895608020619D-02
186  1.8500000000000D+00  9.9000693507862D-03 -8.0793104104940D-02
187  1.8600000000000D+00 -4.0797833181339D-03 -7.5841225917175D-02
188  1.8700000000000D+00 -1.6763565076636D-02 -7.1048451872010D-02
189  1.8800000000000D+00 -2.8178590793314D-02 -6.6421779413368D-02
190  1.8900000000000D+00 -3.8356418461560D-02 -6.1966899780483D-02
191  1.9000000000000D+00 -4.7331700567015D-02 -5.7688434297537D-02
192  1.9100000000000D+00 -5.5142434361166D-02 -5.3589878053904D-02
193  1.9200000000000D+00 -6.1829942080858D-02 -4.9673610471760D-02
194  1.9300000000000D+00 -6.7438449421338D-02 -4.5940982668474D-02
195  1.9400000000000D+00 -7.2014906764152D-02 -4.2392358714047D-02
196  1.9500000000000D+00 -7.5608757623431D-02 -3.9027168863596D-02
197  1.9600000000000D+00 -7.8271681895466D-02 -3.5843969035291D-02
198  1.9700000000000D+00 -8.0057347003755D-02 -3.2840499754424D-02
199  1.9800000000000D+00 -8.1021148922899D-02 -3.0013748214485D-02
200  1.9900000000000D+00 -8.1219948541201D-02 -2.7360012175587D-02
201  2.0000000000000D+00 -8.0711803676467D-02 -2.4874965628265D-02
202  2.0100000000000D+00 -7.9555698358249D-02 -2.2553725735919D-02
203  2.0200000000000D+00 -7.7811270181387D-02 -2.0390920834861D-02
204  2.0300000000000D+00 -7.5538536848421D-02 -1.8380759162067D-02
205  2.0400000000000D+00 -7.2797622990140D-02 -1.6517097988527D-02
206  2.0500000000000D+00 -6.9648488483366D-02 -1.4793512815378D-02
207  2.0600000000000D+00 -6.6150658930699D-02 -1.3203366420441D-02
208  2.0700000000000D+00 -6.2362959992095D-02 -1.1739877279188D-02
209  2.0800000000000D+00 -5.8343256045418D-02 -1.0396187207909D-02
210  2.0900000000000D+00 -5.4148194361543D-02 -9.1654278840193D-03
211  2.1000000000000D+00 -4.9832956349495D-02 -8.0407857941390D-03
212  2.1100000000000D+00 -4.5451015357439D-02 -7.0155657406651D-03
213  2.1200000000000D+00 -4.1053904269797D-02 -6.0832519868613D-03
214  2.1300000000000D+00 -3.6690991855315D-02 -5.2375673224493D-03
215  2.1400000000000D+00 -3.2409269341484D-02 -4.4725296194547D-03
216  2.1500000000000D+00 -2.8253148777129D-02 -3.7825054142302D-03
217  2.1600000000000D+00 -2.4264271877010D-02 -3.1622608964674D-03
218  2.1700000000000D+00 -2.0481333334446D-02 -2.6070091557214D-03
219  2.1800000000000D+00 -1.6939916691315D-02 -2.1124542210139D-03
220  2.1900000000000D+00 -1.3672343522035D-02 -1.6748316708052D-03
221  2.2000000000000D+00 -1.0709647813097D-02 -1.2911848459236D-03
222  2.2100000000000D+00 -8.0740548728042D-03 -9.5855501949604D-04
223  2.2200000000000D+00 -5.7841181471099D-03 -6.7460949844667D-04
224  2.2300000000000D+00 -3.8473020193408D-03 -4.3719168908218D-04
225  2.2400000000000D+00 -2.3123979243675D-03 -2.4879503607605D-04
226  2.2500000000000D+00 -1.2071015927374D-03 -1.1065381350769D-04
227  2.2600000000000D+00 -5.1572211290945D-04 -2.1620715197386D-05
228  2.2700000000000D+00 -1.4657570931662D-04  2.3869680839429D-05
229  2.2800000000000D+00  4.6607102569668D-06  3.2812769187704D-05
230  2.2900000000000D+00  2.9859002016381D-05  1.9781834025799D-05
231  2.3000000000000D+00  2.6884825009877D-06  1.3297885414188D-06
232  2.3100000000000D+00 -1.3590294961251D-05 -5.8715542452383D-06
233  2.3200000000000D+00 -1.1460950000617D-05 -4.5175775310582D-06
234  2.3300000000000D+00  4.6337937668768D-07  2.7289907173808D-07
235  2.3400000000000D+00  2.2897117179362D-06  1.2467628889873D-06
236  2.3500000000000D+00  1.4967156533539D-06  7.6952876105628D-07
237  2.3600000000000D+00  9.5176843687983D-08 -3.9471382145017D-08
238  2.3700000000000D+00  2.1214148986159D-07 -8.7978519676391D-08
239  2.3800000000000D+00  9.8863311284886D-08 -4.1000220102279D-08
240  2.3900000000000D+00  0.0000000000000D+00  0.0000000000000D+00
241  2.4000000000000D+00  0.0000000000000D+00  0.0000000000000D+00
242  2.4100000000000D+00  0.0000000000000D+00  0.0000000000000D+00
243  2.4200000000000D+00  0.0000000000000D+00  0.0000000000000D+00
244  2.4300000000000D+00  0.0000000000000D+00  0.0000000000000D+00
245  2.4400000000000D+00  0.0000000000000D+00  0.0000000000000D+00
246  2.4500000000000D+00  0.0000000000000D+00  0.0000000000000D+00
247  2.4600000000000D+00  0.0000000000000D+00  0.0000000000000D+00
248  2.4700000000000D+00  0.0000000000000D+00  0.0000000000000D+00
249  2.4800000000000D+00  0.0000000000000D+00  0.0000000000000D+00
250  2.4900000000000D+00  0.0000000000000D+00  0.0000000000000D+00
251  2.5000000000000D+00  0.0000000000000D+00  0.0000000000000D+00
252  2.5100000000000D+00  0.0000000000000D+00  0.0000000000000D+00
253  2.5200000000000D+00  0.0000000000000D+00  0.0000000000000D+00
254  2.5300000000000D+00  0.0000000000000D+00  0.0000000000000D+00
255  2.5400000000000D+00  0.0000000000000D+00  0.0000000000000D+00
256  2.5500000000000D+00  0.0000000000000D+00  0.0000000000000D+00
257  2.5600000000000D+00  0.0000000000000D+00  0.0000000000000D+00
258  2.5700000000000D+00  0.0000000000000D+00  0.0000000000000D+00
259  2.5800000000000D+00  0.0000000000000D+00  0.0000000000000D+00
260  2.5900000000000D+00  0.0000000000000D+00  0.0000000000000D+00
261  2.6000000000000D+00  0.0000000000000D+00  0.0000000000000D+00
262  2.6100000000000D+00  0.0000000000000D+00  0.0000000000000D+00
263  2.6200000000000D+00  0.0000000000000D+00  0.0000000000000D+00
264  2.6300000000000D+00  0.0000000000000D+00  0.0000000000000D+00
265  2.6400000000000D+00  0.0000000000000D+00  0.0000000000000D+00
266  2.6500000000000D+00  0.0000000000000D+00  0.0000000000000D+00
267  2.6600000000000D+00  0.0000000000000D+00  0.0000000000000D+00
268  2.6700000000000D+00  0.0000000000000D+00  0.0000000000000D+00
269  2.6800000000000D+00  0.0000000000000D+00  0.0000000000000D+00
270  2.6900000000000D+00  0.0000000000000D+00  0.0000000000000D+00
271  2.7000000000000D+00  0.0000000000000D+00  0.0000000000000D+00
272  2.7100000000000D+00  0.0000000000000D+00  0.0000000000000D+00
273  2.7200000000000D+00  0.0000000000000D+00  0.0000000000000D+00
274  2.7300000000000D+00  0.0000000000000D+00  0.0000000000000D+00
275  2.7400000000000D+00  0.0000000000000D+00  0.0000000000000D+00
276  2.7500000000000D+00  0.0000000000000D+00  0.0000000000000D+00
277  2.7600000000000D+00  0.0000000000000D+00  0.0000000000000D+00
278  2.7700000000000D+00  0.0000000000000D+00  0.0000000000000D+00
279  2.7800000000000D+00  0.0000000000000D+00  0.0000000000000D+00
280  2.7900000000000D+00  0.0000000000000D+00  0.0000000000000D+00
281  2.8000000000000D+00  0.0000000000000D+00  0.0000000000000D+00
282  2.8100000000000D+00  0.0000000000000D+00  0.0000000000000D+00
283  2.8200000000000D+00  0.0000000000000D+00  0.0000000000000D+00
284  2.8300000000000D+00  0.0000000000000D+00  0.0000000000000D+00
285  2.8400000000000D+00  0.0000000000000D+00  0.0000000000000D+00
286  2.8500000000000D+00  0.0000000000000D+00  0.0000000000000D+00
287  2.8600000000000D+00  0.0000000000000D+00  0.0000000000000D+00
288  2.8700000000000D+00  0.0000000000000D+00  0.0000000000000D+00
289  2.8800000000000D+00  0.0000000000000D+00  0.0000000000000D+00
290  2.8900000000000D+00  0.0000000000000D+00  0.0000000000000D+00
291  2.9000000000000D+00  0.0000000000000D+00  0.0000000000000D+00
292  2.9100000000000D+00  0.0000000000000D+00  0.0000000000000D+00
293  2.9200000000000D+00  0.0000000000000D+00  0.0000000000000D+00
294  2.9300000000000D+00  0.0000000000000D+00  0.0000000000000D+00
295  2.9400000000000D+00  0.0000000000000D+00  0.0000000000000D+00
296  2.9500000000000D+00  0.0000000000000D+00  0.0000000000000D+00
297  2.9600000000000D+00  0.0000000000000D+00  0.0000000000000D+00
298  2.9700000000000D+00  0.0000000000000D+00  0.0000000000000D+00
299  2.9800000000000D+00  0.0000000000000D+00  0.0000000000000D+00
300  2.9900000000000D+00  0.0000000000000D+00  0.0000000000000D+00
301  3.0000000000000D+00  0.0000000000000D+00  0.0000000000000D+00
302  3.0100000000000D+00  0.0000000000000D+00  0.0000000000000D+00
303  3.0200000000000D+00  0.0000000000000D+00  0.0000000000000D+00
304  3.0300000000000D+00  0.0000000000000D+00  0.0000000000000D+00
305  3.0400000000000D+00  0.0000000000000D+00  0.0000000000000D+00
306  3.0500000000000D+00  0.0000000000000D+00  0.0000000000000D+00
307  3.0600000000000D+00  0.0000000000000D+00  0.0000000000000D+00
308  3.0700000000000D+00  0.0000000000000D+00  0.0000000000000D+00
309  3.0800000000000D+00  0.0000000000000D+00  0.0000000000000D+00
310  3.0900000000000D+00  0.0000000000000D+00  0.0000000000000D+00
311  3.1000000000000D+00  0.0000000000000D+00  0.0000000000000D+00
312  3.1100000000000D+00  0.0000000000000D+00  0.0000000000000D+00
313  3.1200000000000D+00  0.0000000000000D+00  0.0000000000000D+00
314  3.1300000000000D+00  0.0000000000000D+00  0.0000000000000D+00
315  3.1400000000000D+00  0.0000000000000D+00  0.0000000000000D+00
316  3.1500000000000D+00  0.0000000000000D+00  0.0000000000000D+00
317  3.1600000000000D+00  0.0000000000000D+00  0.0000000000000D+00
318  3.1700000000000D+00  0.0000000000000D+00  0.0000000000000D+00
319  3.1800000000000D+00  0.0000000000000D+00  0.0000000000000D+00
320  3.1900000000000D+00  0.0000000000000D+00  0.0000000000000D+00
321  3.2000000000000D+00  0.0000000000000D+00  0.0000000000000D+00
322  3.2100000000000D+00  0.0000000000000D+00  0.0000000000000D+00
323  3.2200000000000D+00  0.0000000000000D+00  0.0000000000000D+00
324  3.2300000000000D+00  0.0000000000000D+00  0.0000000000000D+00
325  3.2400000000000D+00  0.0000000000000D+00  0.0000000000000D+00
326  3.2500000000000D+00  0.0000000000000D+00  0.0000000000000D+00
327  3.2600000000000D+00  0.0000000000000D+00  0.0000000000000D+00
328  3.2700000000000D+00  0.0000000000000D+00  0.0000000000000D+00
329  3.2800000000000D+00  0.0000000000000D+00  0.0000000000000D+00
330  3.2900000000000D+00  0.0000000000000D+00  0.0000000000000D+00
331  3.3000000000000D+00  0.0000000000000D+00  0.0000000000000D+00
332  3.3100000000000D+00  0.0000000000000D+00  0.0000000000000D+00
333  3.3200000000000D+00  0.0000000000000D+00  0.0000000000000D+00
334  3.3300000000000D+00  0.0000000000000D+00  0.0000000000000D+00
335  3.3400000000000D+00  0.0000000000000D+00  0.0000000000000D+00
336  3.3500000000000D+00  0.0000000000000D+00  0.0000000000000D+00
337  3.3600000000000D+00  0.0000000000000D+00  0.0000000000000D+00
338  3.3700000000000D+00  0.0000000000000D+00  0.0000000000000D+00
339  3.3800000000000D+00  0.0000000000000D+00  0.0000000000000D+00
340  3.3900000000000D+00  0.0000000000000D+00  0.0000000000000D+00
341  3.4000000000000D+00  0.0000000000000D+00  0.0000000000000D+00
342  3.4100000000000D+00  0.0000000000000D+00  0.0000000000000D+00
343  3.4200000000000D+00  0.0000000000000D+00  0.0000000000000D+00
344  3.4300000000000D+00  0.0000000000000D+00  0.0000000000000D+00
345  3.4400000000000D+00  0.0000000000000D+00  0.0000000000000D+00
346  3.4500000000000D+00  0.0000000000000D+00  0.0000000000000D+00
347  3.4600000000000D+00  0.0000000000000D+00  0.0000000000000D+00
348  3.4700000000000D+00  0.0000000000000D+00  0.0000000000000D+00
349  3.4800000000000D+00  0.0000000000000D+00  0.0000000000000D+00
350  3.4900000000000D+00  0.0000000000000D+00  0.0000000000000D+00
351  3.5000000000000D+00  0.0000000000000D+00  0.0000000000000D+00
352  3.5100000000000D+00  0.0000000000000D+00  0.0000000000000D+00
353  3.5200000000000D+00  0.0000000000000D+00  0.0000000000000D+00
354  3.5300000000000D+00  0.0000000000000D+00  0.0000000000000D+00
355  3.5400000000000D+00  0.0000000000000D+00  0.0000000000000D+00
356  3.5500000000000D+00  0.0000000000000D+00  0.0000000000000D+00
357  3.5600000000000D+00  0.0000000000000D+00  0.0000000000000D+00
358  3.5700000000000D+00  0.0000000000000D+00  0.0000000000000D+00
359  3.5800000000000D+00  0.0000000000000D+00  0.0000000000000D+00
360  3.5900000000000D+00  0.0000000000000D+00  0.0000000000000D+00
361  3.6000000000000D+00  0.0000000000000D+00  0.0000000000000D+00
362  3.6100000000000D+00  0.0000000000000D+00  0.0000000000000D+00
363  3.6200000000000D+00  0.0000000000000D+00  0.0000000000000D+00
364  3.6300000000000D+00  0.0000000000000D+00  0.0000000000000D+00
365  3.6400000000000D+00  0.0000000000000D+00  0.0000000000000D+00
366  3.6500000000000D+00  0.0000000000000D+00  0.0000000000000D+00
367  3.6600000000000D+00  0.0000000000000D+00  0.0000000000000D+00
368  3.6700000000000D+00  0.0000000000000D+00  0.0000000000000D+00
369  3.6800000000000D+00  0.0000000000000D+00  0.0000000000000D+00
370  3.6900000000000D+00  0.0000000000000D+00  0.0000000000000D+00
371  3.7000000000000D+00  0.0000000000000D+00  0.0000000000000D+00
372  3.7100000000000D+00  0.0000000000000D+00  0.0000000000000D+00
373  3.7200000000000D+00  0.0000000000000D+00  0.0000000000000D+00
374  3.7300000000000D+00  0.0000000000000D+00  0.0000000000000D+00
375  3.7400000000000D+00  0.0000000000000D+00  0.0000000000000D+00
376  3.7500000000000D+00  0.0000000000000D+00  0.0000000000000D+00
377  3.7600000000000D+00  0.0000000000000D+00  0.0000000000000D+00
378  3.7700000000000D+00  0.0000000000000D+00  0.0000000000000D+00
379  3.7800000000000D+00  0.0000000000000D+00  0.0000000000000D+00
380  3.7900000000000D+00  0.0000000000000D+00  0.0000000000000D+00
381  3.8000000000000D+00  0.0000000000000D+00  0.0000000000000D+00
382  3.8100000000000D+00  0.0000000000000D+00  0.0000000000000D+00
383  3.8200000000000D+00  0.0000000000000D+00  0.0000000000000D+00
384  3.8300000000000D+00  0.0000000000000D+00  0.0000000000000D+00
385  3.8400000000000D+00  0.0000000000000D+00  0.0000000000000D+00
386  3.8500000000000D+00  0.0000000000000D+00  0.0000000000000D+00
387  3.8600000000000D+00  0.0000000000000D+00  0.0000000000000D+00
388  3.8700000000000D+00  0.0000000000000D+00  0.0000000000000D+00
389  3.8800000000000D+00  0.0000000000000D+00  0.0000000000000D+00
390  3.8900000000000D+00  0.0000000000000D+00  0.0000000000000D+00
391  3.9000000000000D+00  0.0000000000000D+00  0.0000000000000D+00
392  3.9100000000000D+00  0.0000000000000D+00  0.0000000000000D+00
393  3.9200000000000D+00  0.0000000000000D+00  0.0000000000000D+00
394  3.9300000000000D+00  0.0000000000000D+00  0.0000000000000D+00
395  3.9400000000000D+00  0.0000000000000D+00  0.0000000000000D+00
396  3.9500000000000D+00  0.0000000000000D+00  0.0000000000000D+00
397  3.9600000000000D+00  0.0000000000000D+00  0.0000000000000D+00
398  3.9700000000000D+00  0.0000000000000D+00  0.0000000000000D+00
399  3.9800000000000D+00  0.0000000000000D+00  0.0000000000000D+00
400  3.9900000000000D+00  0.0000000000000D+00  0.0000000000000D+00
401  4.0000000000000D+00  0.0000000000000D+00  0.0000000000000D+00
402  4.0100000000000D+00  0.0000000000000D+00  0.0000000000000D+00
403  4.0200000000000D+00  0.0000000000000D+00  0.0000000000000D+00
404  4.0300000000000D+00  0.0000000000000D+00  0.0000000000000D+00
405  4.0400000000000D+00  0.0000000000000D+00  0.0000000000000D+00
406  4.0500000000000D+00  0.0000000000000D+00  0.0000000000000D+00
407  4.0600000000000D+00  0.0000000000000D+00  0.0000000000000D+00
408  4.0700000000000D+00  0.0000000000000D+00  0.0000000000000D+00
409  4.0800000000000D+00  0.0000000000000D+00  0.0000000000000D+00
410  4.0900000000000D+00  0.0000000000000D+00  0.0000000000000D+00
411  4.1000000000000D+00  0.0000000000000D+00  0.0000000000000D+00
412  4.1100000000000D+00  0.0000000000000D+00  0.0000000000000D+00
413  4.1200000000000D+00  0.0000000000000D+00  0.0000000000000D+00
414  4.1300000000000D+00  0.0000000000000D+00  0.0000000000000D+00
415  4.1400000000000D+00  0.0000000000000D+00  0.0000000000000D+00
416  4.1500000000000D+00  0.0000000000000D+00  0.0000000000000D+00
417  4.1600000000000D+00  0.0000000000000D+00  0.0000000000000D+00
418  4.1700000000000D+00  0.0000000000000D+00  0.0000000000000D+00
419  4.1800000000000D+00  0.0000000000000D+00  0.0000000000000D+00
420  4.1900000000000D+00  0.0000000000000D+00  0.0000000000000D+00
421  4.2000000000000D+00  0.0000000000000D+00  0.0000000000000D+00
422  4.2100000000000D+00  0.0000000000000D+00  0.0000000000000D+00
423  4.2200000000000D+00  0.0000000000000D+00  0.0000000000000D+00
424  4.2300000000000D+00  0.0000000000000D+00  0.0000000000000D+00
425  4.2400000000000D+00  0.0000000000000D+00  0.0000000000000D+00
426  4.2500000000000D+00  0.0000000000000D+00  0.0000000000000D+00
427  4.2600000000000D+00  0.0000000000000D+00  0.0000000000000D+00
428  4.2700000000000D+00  0.0000000000000D+00  0.0000000000000D+00
429  4.2800000000000D+00  0.0000000000000D+00  0.0000000000000D+00
430  4.2900000000000D+00  0.0000000000000D+00  0.0000000000000D+00
431  4.3000000000000D+00  0.0000000000000D+00  0.0000000000000D+00
432  4.3100000000000D+00  0.0000000000000D+00  0.0000000000000D+00
433  4.3200000000000D+00  0.0000000000000D+00  0.0000000000000D+00
434  4.3300000000000D+00  0.0000000000000D+00  0.0000000000000D+00
435  4.3400000000000D+00  0.0000000000000D+00  0.0000000000000D+00
436  4.3500000000000D+00  0.0000000000000D+00  0.0000000000000D+00
437  4.3600000000000D+00  0.0000000000000D+00  0.0000000000000D+00
438  4.3700000000000D+00  0.0000000000000D+00  0.0000000000000D+00
439  4.3800000000000D+00  0.0000000000000D+00  0.0000000000000D+00
440  4.3900000000000D+00  0.0000000000000D+00  0.0000000000000D+00
441  4.4000000000000D+00  0.0000000000000D+00  0.0000000000000D+00
442  4.4100000000000D+00  0.0000000000000D+00  0.0000000000000D+00
443  4.4200000000000D+00  0.0000000000000D+00  0.0000000000000D+00