Cu    ONCVPSP-3.3.0  r_core=   1.26204   1.45626   1.76249
29.0000     19.0000      180430    zatom,zion,pspd
8 -116133   2     4   600     0    pspcod,pspxc,lmax,lloc,mmax,r2well
5.99000000  3.50000000  0.00000000    rchrg fchrg qchrg
2     3     2     0    nproj
3     1           extension_switch
4     3     0    nprojso
0                        -4.0061356281342D-01  5.0107135154089D+00
1  0.0000000000000D+00 -1.0641245329346D-08 -3.4388015768272D-09
2  1.0000000000000D-02  3.6942062444678D-02  1.0420072333199D-01
3  2.0000000000000D-02  7.3530189315171D-02  2.0795003068204D-01
4  3.0000000000000D-02  1.0941754783493D-01  3.1080009264693D-01
5  4.0000000000000D-02  1.4427136843513D-01  4.1231020256122D-01
6  5.0000000000000D-02  1.7777962318198D-01  5.1205021271843D-01
7  6.0000000000000D-02  2.0965728815678D-01  6.0960382292207D-01
8  7.0000000000000D-02  2.3965206388882D-01  7.0457167627152D-01
9  8.0000000000000D-02  2.6754943858211D-01  7.9657422052630D-01
10  9.0000000000000D-02  2.9317699179169D-01  8.8525429756860D-01
11  1.0000000000000D-01  3.1640785114591D-01  9.7027942831865D-01
12  1.1000000000000D-01  3.3716323139157D-01  1.0513437658609D+00
13  1.2000000000000D-01  3.5541400313834D-01  1.1281696954088D+00
14  1.3000000000000D-01  3.7118125785032D-01  1.2005090659631D+00
15  1.4000000000000D-01  3.8453585550565D-01  1.2681440449844D+00
16  1.5000000000000D-01  3.9559696153665D-01  1.3308875939847D+00
17  1.6000000000000D-01  4.0452959978206D-01  1.3885835695232D+00
18  1.7000000000000D-01  4.1154126783865D-01  1.4411064605366D+00
19  1.8000000000000D-01  4.1687768000865D-01  1.4883607791358D+00
20  1.9000000000000D-01  4.2081772063422D-01  1.5302801278263D+00
21  2.0000000000000D-01  4.2366770664341D-01  1.5668259714640D+00
22  2.1000000000000D-01  4.2575507228668D-01  1.5979861470263D+00
23  2.2000000000000D-01  4.2742160103463D-01  1.6237731483821D+00
24  2.3000000000000D-01  4.2901633919474D-01  1.6442222265999D+00
25  2.4000000000000D-01  4.3088833278767D-01  1.6593893488746D+00
26  2.5000000000000D-01  4.3337933345469D-01  1.6693490608395D+00
27  2.6000000000000D-01  4.3681662054876D-01  1.6741922978282D+00
28  2.7000000000000D-01  4.4150608505110D-01  1.6740241905346D+00
29  2.8000000000000D-01  4.4772571656428D-01  1.6689619095128D+00
30  2.9000000000000D-01  4.5571962743103D-01  1.6591325910608D+00
31  3.0000000000000D-01  4.6569273813730D-01  1.6446713842934D+00
32  3.1000000000000D-01  4.7780623575336D-01  1.6257196556820D+00
33  3.2000000000000D-01  4.9217390247403D-01  1.6024233830848D+00
34  3.3000000000000D-01  5.0885939460764D-01  1.5749317664060D+00
35  3.4000000000000D-01  5.2787453394449D-01  1.5433960765915D+00
36  3.5000000000000D-01  5.4917865365787D-01  1.5079687588079D+00
37  3.6000000000000D-01  5.7267902012566D-01  1.4688027994728D+00
38  3.7000000000000D-01  5.9823233071074D-01  1.4260513604345D+00
39  3.8000000000000D-01  6.2564726601022D-01  1.3798676771633D+00
40  3.9000000000000D-01  6.5468805380011D-01  1.3304052114477D+00
41  4.0000000000000D-01  6.8507898127906D-01  1.2778180429143D+00
42  4.1000000000000D-01  7.1650977265907D-01  1.2222614778411D+00
43  4.2000000000000D-01  7.4864173105770D-01  1.1638928483221D+00
44  4.3000000000000D-01  7.8111452737755D-01  1.1028724699949D+00
45  4.4000000000000D-01  8.1355350475240D-01  1.0393647223539D+00
46  4.5000000000000D-01  8.4557735548954D-01  9.7353921223106D-01
47  4.6000000000000D-01  8.7680601849578D-01  9.0557197842340D-01
48  4.7000000000000D-01  9.0686863914227D-01  8.3564669372873D-01
49  4.8000000000000D-01  9.3541143054639D-01  7.6395581986853D-01
50  4.9000000000000D-01  9.6210527541674D-01  6.9070167096014D-01
51  5.0000000000000D-01  9.8665291095070D-01  6.1609734234877D-01
52  5.1000000000000D-01  1.0087955457551D+00  5.4036746371658D-01
53  5.2000000000000D-01  1.0283187672937D+00  4.6374873841963D-01
54  5.3000000000000D-01  1.0450576107987D+00  3.8649023491453D-01
55  5.4000000000000D-01  1.0589006756779D+00  3.0885340085122D-01
56  5.5000000000000D-01  1.0697931929989D+00  2.3111177585586D-01
57  5.6000000000000D-01  1.0777389672551D+00  1.5355038509249D-01
58  5.7000000000000D-01  1.0828011369844D+00  7.6464802266172D-02
59  5.8000000000000D-01  1.0851017215722D+00  1.5987770256230D-04
60  5.9000000000000D-01  1.0848199451616D+00 -7.5051865663684D-02
61  6.0000000000000D-01  1.0821893527706D+00 -1.4885215821871D-01
62  6.1000000000000D-01  1.0774937577849D+00 -2.2091921407579D-01
63  6.2000000000000D-01  1.0710620836806D+00 -2.9093024140499D-01
64  6.3000000000000D-01  1.0632621855799D+00 -3.5856420135426D-01
65  6.4000000000000D-01  1.0544937585237D+00 -4.2350477794536D-01
66  6.5000000000000D-01  1.0451804589737D+00 -4.8544351559941D-01
67  6.6000000000000D-01  1.0357613833134D+00 -5.4408307599154D-01
68  6.7000000000000D-01  1.0266820618736D+00 -5.9914056179421D-01
69  6.8000000000000D-01  1.0183851388964D+00 -6.5035085165660D-01
70  6.9000000000000D-01  1.0113009175142D+00 -6.9746988859038D-01
71  7.0000000000000D-01  1.0058379541634D+00 -7.4027786281392D-01
72  7.1000000000000D-01  1.0023738886903D+00 -7.7858223010857D-01
73  7.2000000000000D-01  1.0012466946344D+00 -8.1222050788237D-01
74  7.3000000000000D-01  1.0027465288358D+00 -8.4106279340564D-01
75  7.4000000000000D-01  1.0071083506007D+00 -8.6501395207342D-01
76  7.5000000000000D-01  1.0145054684240D+00 -8.8401542797854D-01
77  7.6000000000000D-01  1.0250441567256D+00 -8.9804663453707D-01
78  7.7000000000000D-01  1.0387594666297D+00 -9.0712588925555D-01
79  7.8000000000000D-01  1.0556123337584D+00 -9.1131086388011D-01
80  7.9000000000000D-01  1.0754880626871D+00 -9.1069852900499D-01
81  8.0000000000000D-01  1.0981962425639D+00 -9.0542458059321D-01
82  8.1000000000000D-01  1.1234721218850D+00 -8.9566234462998D-01
83  8.2000000000000D-01  1.1509794430288D+00 -8.8162116512863D-01
84  8.3000000000000D-01  1.1803147094150D+00 -8.6354428977326D-01
85  8.4000000000000D-01  1.2110128305764D+00 -8.4170627644195D-01
86  8.5000000000000D-01  1.2425540635656D+00 -8.1640995253909D-01
87  8.6000000000000D-01  1.2743721434684D+00 -7.8798296730804D-01
88  8.7000000000000D-01  1.3058634718732D+00 -7.5677398493537D-01
89  8.8000000000000D-01  1.3363972104330D+00 -7.2314857314336D-01
90  8.9000000000000D-01  1.3653261075735D+00 -6.8748484796047D-01
91  9.0000000000000D-01  1.3919978703654D+00 -6.5016894033597D-01
92  9.1000000000000D-01  1.4157668809006D+00 -6.1159035411897D-01
93  9.2000000000000D-01  1.4360060474934D+00 -5.7213728756911D-01
94  9.3000000000000D-01  1.4521185758536D+00 -5.3219199194166D-01
95  9.4000000000000D-01  1.4635494442083D+00 -4.9212624075364D-01
96  9.5000000000000D-01  1.4697963692226D+00 -4.5229698207430D-01
97  9.6000000000000D-01  1.4704200564894D+00 -4.1304224360192D-01
98  9.7000000000000D-01  1.4650535401854D+00 -3.7467735643423D-01
99  9.8000000000000D-01  1.4534104312833D+00 -3.3749155829645D-01
100  9.9000000000000D-01  1.4352919117005D+00 -3.0174503081835D-01
101  1.0000000000000D+00  1.4105923330556D+00 -2.6766641821070D-01
102  1.0100000000000D+00  1.3793033033761D+00 -2.3545086635882D-01
103  1.0200000000000D+00  1.3415161713336D+00 -2.0525861253318D-01
104  1.0300000000000D+00  1.2974228463061D+00 -1.7721414629761D-01
105  1.0400000000000D+00  1.2473149225685D+00 -1.5140595218085D-01
106  1.0500000000000D+00  1.1915811073091D+00 -1.2788683422268D-01
107  1.0600000000000D+00  1.1307029811498D+00 -1.0667481287307D-01
108  1.0700000000000D+00  1.0652491538643D+00 -8.7754573439133D-02
109  1.0800000000000D+00  9.9586790539378D-01 -7.1079436197061D-02
110  1.0900000000000D+00  9.2327843196971D-01 -5.6573808455228D-02
111  1.1000000000000D+00  8.4826084334260D-01 -4.4136070198234D-02
112  1.1100000000000D+00  7.7164507976705D-01 -3.3641837457885D-02
113  1.1200000000000D+00  6.9429894136318D-01 -2.4947539644492D-02
114  1.1300000000000D+00  6.1711543747052D-01 -1.7894242121293D-02
115  1.1400000000000D+00  5.4099967863082D-01 -1.2311640341434D-02
116  1.1500000000000D+00  4.6685554270834D-01 -8.0221489363327D-03
117  1.1600000000000D+00  3.9557235465322D-01 -4.8450064870987D-03
118  1.1700000000000D+00  3.2801182589332D-01 -2.6003151270095D-03
119  1.1800000000000D+00  2.6499548099837D-01 -1.1129382957325D-03
120  1.1900000000000D+00  2.0729260104294D-01 -2.1623563444099D-04
121  1.2000000000000D+00  1.5560974146702D-01  2.4466284281358D-04
122  1.2100000000000D+00  1.1058094183345D-01  4.0981323088701D-04
123  1.2200000000000D+00  7.2760165459025D-02  3.9989180512055D-04
124  1.2300000000000D+00  4.2571989452931D-02  3.1138856400758D-04
125  1.2400000000000D+00  2.0205257268490D-02  2.1090923765163D-04
126  1.2500000000000D+00  6.4780500251790D-03  1.5236578923503D-04
127  1.2600000000000D+00  7.7171588954277D-04  1.2822350806410D-04
128  1.2700000000000D+00 -2.7598855932301D-04  5.5608439018515D-05
129  1.2800000000000D+00  7.0012069190874D-05 -8.5030880566455D-06
130  1.2900000000000D+00  4.9387768471372D-05 -4.8275187819267D-06
131  1.3000000000000D+00 -1.8838331073041D-05  2.7438526558410D-06
132  1.3100000000000D+00 -3.8235279646931D-07 -1.4995517264359D-07
133  1.3200000000000D+00 -5.5792605628583D-07 -2.1881335474792D-07
134  1.3300000000000D+00  0.0000000000000D+00  0.0000000000000D+00
135  1.3400000000000D+00  0.0000000000000D+00  0.0000000000000D+00
136  1.3500000000000D+00  0.0000000000000D+00  0.0000000000000D+00
137  1.3600000000000D+00  0.0000000000000D+00  0.0000000000000D+00
138  1.3700000000000D+00  0.0000000000000D+00  0.0000000000000D+00
139  1.3800000000000D+00  0.0000000000000D+00  0.0000000000000D+00
140  1.3900000000000D+00  0.0000000000000D+00  0.0000000000000D+00
141  1.4000000000000D+00  0.0000000000000D+00  0.0000000000000D+00
142  1.4100000000000D+00  0.0000000000000D+00  0.0000000000000D+00
143  1.4200000000000D+00  0.0000000000000D+00  0.0000000000000D+00
144  1.4300000000000D+00  0.0000000000000D+00  0.0000000000000D+00
145  1.4400000000000D+00  0.0000000000000D+00  0.0000000000000D+00
146  1.4500000000000D+00  0.0000000000000D+00  0.0000000000000D+00
147  1.4600000000000D+00  0.0000000000000D+00  0.0000000000000D+00
148  1.4700000000000D+00  0.0000000000000D+00  0.0000000000000D+00
149  1.4800000000000D+00  0.0000000000000D+00  0.0000000000000D+00
150  1.4900000000000D+00  0.0000000000000D+00  0.0000000000000D+00
151  1.5000000000000D+00  0.0000000000000D+00  0.0000000000000D+00
152  1.5100000000000D+00  0.0000000000000D+00  0.0000000000000D+00
153  1.5200000000000D+00  0.0000000000000D+00  0.0000000000000D+00
154  1.5300000000000D+00  0.0000000000000D+00  0.0000000000000D+00
155  1.5400000000000D+00  0.0000000000000D+00  0.0000000000000D+00
156  1.5500000000000D+00  0.0000000000000D+00  0.0000000000000D+00
157  1.5600000000000D+00  0.0000000000000D+00  0.0000000000000D+00
158  1.5700000000000D+00  0.0000000000000D+00  0.0000000000000D+00
159  1.5800000000000D+00  0.0000000000000D+00  0.0000000000000D+00
160  1.5900000000000D+00  0.0000000000000D+00  0.0000000000000D+00
161  1.6000000000000D+00  0.0000000000000D+00  0.0000000000000D+00
162  1.6100000000000D+00  0.0000000000000D+00  0.0000000000000D+00
163  1.6200000000000D+00  0.0000000000000D+00  0.0000000000000D+00
164  1.6300000000000D+00  0.0000000000000D+00  0.0000000000000D+00
165  1.6400000000000D+00  0.0000000000000D+00  0.0000000000000D+00
166  1.6500000000000D+00  0.0000000000000D+00  0.0000000000000D+00
167  1.6600000000000D+00  0.0000000000000D+00  0.0000000000000D+00
168  1.6700000000000D+00  0.0000000000000D+00  0.0000000000000D+00
169  1.6800000000000D+00  0.0000000000000D+00  0.0000000000000D+00
170  1.6900000000000D+00  0.0000000000000D+00  0.0000000000000D+00
171  1.7000000000000D+00  0.0000000000000D+00  0.0000000000000D+00
172  1.7100000000000D+00  0.0000000000000D+00  0.0000000000000D+00
173  1.7200000000000D+00  0.0000000000000D+00  0.0000000000000D+00
174  1.7300000000000D+00  0.0000000000000D+00  0.0000000000000D+00
175  1.7400000000000D+00  0.0000000000000D+00  0.0000000000000D+00
176  1.7500000000000D+00  0.0000000000000D+00  0.0000000000000D+00
177  1.7600000000000D+00  0.0000000000000D+00  0.0000000000000D+00
178  1.7700000000000D+00  0.0000000000000D+00  0.0000000000000D+00
179  1.7800000000000D+00  0.0000000000000D+00  0.0000000000000D+00
180  1.7900000000000D+00  0.0000000000000D+00  0.0000000000000D+00
181  1.8000000000000D+00  0.0000000000000D+00  0.0000000000000D+00
182  1.8100000000000D+00  0.0000000000000D+00  0.0000000000000D+00
183  1.8200000000000D+00  0.0000000000000D+00  0.0000000000000D+00
184  1.8300000000000D+00  0.0000000000000D+00  0.0000000000000D+00
185  1.8400000000000D+00  0.0000000000000D+00  0.0000000000000D+00
186  1.8500000000000D+00  0.0000000000000D+00  0.0000000000000D+00
187  1.8600000000000D+00  0.0000000000000D+00  0.0000000000000D+00
188  1.8700000000000D+00  0.0000000000000D+00  0.0000000000000D+00
189  1.8800000000000D+00  0.0000000000000D+00  0.0000000000000D+00
190  1.8900000000000D+00  0.0000000000000D+00  0.0000000000000D+00
191  1.9000000000000D+00  0.0000000000000D+00  0.0000000000000D+00
192  1.9100000000000D+00  0.0000000000000D+00  0.0000000000000D+00
193  1.9200000000000D+00  0.0000000000000D+00  0.0000000000000D+00
194  1.9300000000000D+00  0.0000000000000D+00  0.0000000000000D+00
195  1.9400000000000D+00  0.0000000000000D+00  0.0000000000000D+00
196  1.9500000000000D+00  0.0000000000000D+00  0.0000000000000D+00
197  1.9600000000000D+00  0.0000000000000D+00  0.0000000000000D+00
198  1.9700000000000D+00  0.0000000000000D+00  0.0000000000000D+00
199  1.9800000000000D+00  0.0000000000000D+00  0.0000000000000D+00
200  1.9900000000000D+00  0.0000000000000D+00  0.0000000000000D+00
201  2.0000000000000D+00  0.0000000000000D+00  0.0000000000000D+00
202  2.0100000000000D+00  0.0000000000000D+00  0.0000000000000D+00
203  2.0200000000000D+00  0.0000000000000D+00  0.0000000000000D+00
204  2.0300000000000D+00  0.0000000000000D+00  0.0000000000000D+00
205  2.0400000000000D+00  0.0000000000000D+00  0.0000000000000D+00
206  2.0500000000000D+00  0.0000000000000D+00  0.0000000000000D+00
207  2.0600000000000D+00  0.0000000000000D+00  0.0000000000000D+00
208  2.0700000000000D+00  0.0000000000000D+00  0.0000000000000D+00
209  2.0800000000000D+00  0.0000000000000D+00  0.0000000000000D+00
210  2.0900000000000D+00  0.0000000000000D+00  0.0000000000000D+00
211  2.1000000000000D+00  0.0000000000000D+00  0.0000000000000D+00
212  2.1100000000000D+00  0.0000000000000D+00  0.0000000000000D+00
213  2.1200000000000D+00  0.0000000000000D+00  0.0000000000000D+00
214  2.1300000000000D+00  0.0000000000000D+00  0.0000000000000D+00
215  2.1400000000000D+00  0.0000000000000D+00  0.0000000000000D+00
216  2.1500000000000D+00  0.0000000000000D+00  0.0000000000000D+00
217  2.1600000000000D+00  0.0000000000000D+00  0.0000000000000D+00
218  2.1700000000000D+00  0.0000000000000D+00  0.0000000000000D+00
219  2.1800000000000D+00  0.0000000000000D+00  0.0000000000000D+00
220  2.1900000000000D+00  0.0000000000000D+00  0.0000000000000D+00
221  2.2000000000000D+00  0.0000000000000D+00  0.0000000000000D+00
222  2.2100000000000D+00  0.0000000000000D+00  0.0000000000000D+00
223  2.2200000000000D+00  0.0000000000000D+00  0.0000000000000D+00
224  2.2300000000000D+00  0.0000000000000D+00  0.0000000000000D+00
225  2.2400000000000D+00  0.0000000000000D+00  0.0000000000000D+00
226  2.2500000000000D+00  0.0000000000000D+00  0.0000000000000D+00
227  2.2600000000000D+00  0.0000000000000D+00  0.0000000000000D+00
228  2.2700000000000D+00  0.0000000000000D+00  0.0000000000000D+00
229  2.2800000000000D+00  0.0000000000000D+00  0.0000000000000D+00
230  2.2900000000000D+00  0.0000000000000D+00  0.0000000000000D+00
231  2.3000000000000D+00  0.0000000000000D+00  0.0000000000000D+00
232  2.3100000000000D+00  0.0000000000000D+00  0.0000000000000D+00
233  2.3200000000000D+00  0.0000000000000D+00  0.0000000000000D+00
234  2.3300000000000D+00  0.0000000000000D+00  0.0000000000000D+00
235  2.3400000000000D+00  0.0000000000000D+00  0.0000000000000D+00
236  2.3500000000000D+00  0.0000000000000D+00  0.0000000000000D+00
237  2.3600000000000D+00  0.0000000000000D+00  0.0000000000000D+00
238  2.3700000000000D+00  0.0000000000000D+00  0.0000000000000D+00
239  2.3800000000000D+00  0.0000000000000D+00  0.0000000000000D+00
240  2.3900000000000D+00  0.0000000000000D+00  0.0000000000000D+00
241  2.4000000000000D+00  0.0000000000000D+00  0.0000000000000D+00
242  2.4100000000000D+00  0.0000000000000D+00  0.0000000000000D+00
243  2.4200000000000D+00  0.0000000000000D+00  0.0000000000000D+00
244  2.4300000000000D+00  0.0000000000000D+00  0.0000000000000D+00
245  2.4400000000000D+00  0.0000000000000D+00  0.0000000000000D+00
246  2.4500000000000D+00  0.0000000000000D+00  0.0000000000000D+00
247  2.4600000000000D+00  0.0000000000000D+00  0.0000000000000D+00
248  2.4700000000000D+00  0.0000000000000D+00  0.0000000000000D+00
249  2.4800000000000D+00  0.0000000000000D+00  0.0000000000000D+00
250  2.4900000000000D+00  0.0000000000000D+00  0.0000000000000D+00
251  2.5000000000000D+00  0.0000000000000D+00  0.0000000000000D+00
252  2.5100000000000D+00  0.0000000000000D+00  0.0000000000000D+00
253  2.5200000000000D+00  0.0000000000000D+00  0.0000000000000D+00
254  2.5300000000000D+00  0.0000000000000D+00  0.0000000000000D+00
255  2.5400000000000D+00  0.0000000000000D+00  0.0000000000000D+00
256  2.5500000000000D+00  0.0000000000000D+00  0.0000000000000D+00
257  2.5600000000000D+00  0.0000000000000D+00  0.0000000000000D+00
258  2.5700000000000D+00  0.0000000000000D+00  0.0000000000000D+00
259  2.5800000000000D+00  0.0000000000000D+00  0.0000000000000D+00
260  2.5900000000000D+00  0.0000000000000D+00  0.0000000000000D+00
261  2.6000000000000D+00  0.0000000000000D+00  0.0000000000000D+00
262  2.6100000000000D+00  0.0000000000000D+00  0.0000000000000D+00
263  2.6200000000000D+00  0.0000000000000D+00  0.0000000000000D+00
264  2.6300000000000D+00  0.0000000000000D+00  0.0000000000000D+00
265  2.6400000000000D+00  0.0000000000000D+00  0.0000000000000D+00
266  2.6500000000000D+00  0.0000000000000D+00  0.0000000000000D+00
267  2.6600000000000D+00  0.0000000000000D+00  0.0000000000000D+00
268  2.6700000000000D+00  0.0000000000000D+00  0.0000000000000D+00
269  2.6800000000000D+00  0.0000000000000D+00  0.0000000000000D+00
270  2.6900000000000D+00  0.0000000000000D+00  0.0000000000000D+00
271  2.7000000000000D+00  0.0000000000000D+00  0.0000000000000D+00
272  2.7100000000000D+00  0.0000000000000D+00  0.0000000000000D+00
273  2.7200000000000D+00  0.0000000000000D+00  0.0000000000000D+00
274  2.7300000000000D+00  0.0000000000000D+00  0.0000000000000D+00
275  2.7400000000000D+00  0.0000000000000D+00  0.0000000000000D+00
276  2.7500000000000D+00  0.0000000000000D+00  0.0000000000000D+00
277  2.7600000000000D+00  0.0000000000000D+00  0.0000000000000D+00
278  2.7700000000000D+00  0.0000000000000D+00  0.0000000000000D+00
279  2.7800000000000D+00  0.0000000000000D+00  0.0000000000000D+00
280  2.7900000000000D+00  0.0000000000000D+00  0.0000000000000D+00
281  2.8000000000000D+00  0.0000000000000D+00  0.0000000000000D+00
282  2.8100000000000D+00  0.0000000000000D+00  0.0000000000000D+00
283  2.8200000000000D+00  0.0000000000000D+00  0.0000000000000D+00
284  2.8300000000000D+00  0.0000000000000D+00  0.0000000000000D+00
285  2.8400000000000D+00  0.0000000000000D+00  0.0000000000000D+00
286  2.8500000000000D+00  0.0000000000000D+00  0.0000000000000D+00
287  2.8600000000000D+00  0.0000000000000D+00  0.0000000000000D+00
288  2.8700000000000D+00  0.0000000000000D+00  0.0000000000000D+00
289  2.8800000000000D+00  0.0000000000000D+00  0.0000000000000D+00
290  2.8900000000000D+00  0.0000000000000D+00  0.0000000000000D+00
291  2.9000000000000D+00  0.0000000000000D+00  0.0000000000000D+00
292  2.9100000000000D+00  0.0000000000000D+00  0.0000000000000D+00
293  2.9200000000000D+00  0.0000000000000D+00  0.0000000000000D+00
294  2.9300000000000D+00  0.0000000000000D+00  0.0000000000000D+00
295  2.9400000000000D+00  0.0000000000000D+00  0.0000000000000D+00
296  2.9500000000000D+00  0.0000000000000D+00  0.0000000000000D+00
297  2.9600000000000D+00  0.0000000000000D+00  0.0000000000000D+00
298  2.9700000000000D+00  0.0000000000000D+00  0.0000000000000D+00
299  2.9800000000000D+00  0.0000000000000D+00  0.0000000000000D+00
300  2.9900000000000D+00  0.0000000000000D+00  0.0000000000000D+00
301  3.0000000000000D+00  0.0000000000000D+00  0.0000000000000D+00
302  3.0100000000000D+00  0.0000000000000D+00  0.0000000000000D+00
303  3.0200000000000D+00  0.0000000000000D+00  0.0000000000000D+00
304  3.0300000000000D+00  0.0000000000000D+00  0.0000000000000D+00
305  3.0400000000000D+00  0.0000000000000D+00  0.0000000000000D+00
306  3.0500000000000D+00  0.0000000000000D+00  0.0000000000000D+00
307  3.0600000000000D+00  0.0000000000000D+00  0.0000000000000D+00
308  3.0700000000000D+00  0.0000000000000D+00  0.0000000000000D+00
309  3.0800000000000D+00  0.0000000000000D+00  0.0000000000000D+00
310  3.0900000000000D+00  0.0000000000000D+00  0.0000000000000D+00
311  3.1000000000000D+00  0.0000000000000D+00  0.0000000000000D+00
312  3.1100000000000D+00  0.0000000000000D+00  0.0000000000000D+00
313  3.1200000000000D+00  0.0000000000000D+00  0.0000000000000D+00
314  3.1300000000000D+00  0.0000000000000D+00  0.0000000000000D+00
315  3.1400000000000D+00  0.0000000000000D+00  0.0000000000000D+00
316  3.1500000000000D+00  0.0000000000000D+00  0.0000000000000D+00
317  3.1600000000000D+00  0.0000000000000D+00  0.0000000000000D+00
318  3.1700000000000D+00  0.0000000000000D+00  0.0000000000000D+00
319  3.1800000000000D+00  0.0000000000000D+00  0.0000000000000D+00
320  3.1900000000000D+00  0.0000000000000D+00  0.0000000000000D+00
321  3.2000000000000D+00  0.0000000000000D+00  0.0000000000000D+00
322  3.2100000000000D+00  0.0000000000000D+00  0.0000000000000D+00
323  3.2200000000000D+00  0.0000000000000D+00  0.0000000000000D+00
324  3.2300000000000D+00  0.0000000000000D+00  0.0000000000000D+00
325  3.2400000000000D+00  0.0000000000000D+00  0.0000000000000D+00
326  3.2500000000000D+00  0.0000000000000D+00  0.0000000000000D+00
327  3.2600000000000D+00  0.0000000000000D+00  0.0000000000000D+00
328  3.2700000000000D+00  0.0000000000000D+00  0.0000000000000D+00
329  3.2800000000000D+00  0.0000000000000D+00  0.0000000000000D+00
330  3.2900000000000D+00  0.0000000000000D+00  0.0000000000000D+00
331  3.3000000000000D+00  0.0000000000000D+00  0.0000000000000D+00
332  3.3100000000000D+00  0.0000000000000D+00  0.0000000000000D+00
333  3.3200000000000D+00  0.0000000000000D+00  0.0000000000000D+00
334  3.3300000000000D+00  0.0000000000000D+00  0.0000000000000D+00
335  3.3400000000000D+00  0.0000000000000D+00  0.0000000000000D+00
336  3.3500000000000D+00  0.0000000000000D+00  0.0000000000000D+00
337  3.3600000000000D+00  0.0000000000000D+00  0.0000000000000D+00
338  3.3700000000000D+00  0.0000000000000D+00  0.0000000000000D+00
339  3.3800000000000D+00  0.0000000000000D+00  0.0000000000000D+00
340  3.3900000000000D+00  0.0000000000000D+00  0.0000000000000D+00
341  3.4000000000000D+00  0.0000000000000D+00  0.0000000000000D+00
342  3.4100000000000D+00  0.0000000000000D+00  0.0000000000000D+00
343  3.4200000000000D+00  0.0000000000000D+00  0.0000000000000D+00
344  3.4300000000000D+00  0.0000000000000D+00  0.0000000000000D+00
345  3.4400000000000D+00  0.0000000000000D+00  0.0000000000000D+00
346  3.4500000000000D+00  0.0000000000000D+00  0.0000000000000D+00
347  3.4600000000000D+00  0.0000000000000D+00  0.0000000000000D+00
348  3.4700000000000D+00  0.0000000000000D+00  0.0000000000000D+00
349  3.4800000000000D+00  0.0000000000000D+00  0.0000000000000D+00
350  3.4900000000000D+00  0.0000000000000D+00  0.0000000000000D+00
351  3.5000000000000D+00  0.0000000000000D+00  0.0000000000000D+00
352  3.5100000000000D+00  0.0000000000000D+00  0.0000000000000D+00
353  3.5200000000000D+00  0.0000000000000D+00  0.0000000000000D+00
354  3.5300000000000D+00  0.0000000000000D+00  0.0000000000000D+00
355  3.5400000000000D+00  0.0000000000000D+00  0.0000000000000D+00
356  3.5500000000000D+00  0.0000000000000D+00  0.0000000000000D+00
357  3.5600000000000D+00  0.0000000000000D+00  0.0000000000000D+00
358  3.5700000000000D+00  0.0000000000000D+00  0.0000000000000D+00
359  3.5800000000000D+00  0.0000000000000D+00  0.0000000000000D+00
360  3.5900000000000D+00  0.0000000000000D+00  0.0000000000000D+00
361  3.6000000000000D+00  0.0000000000000D+00  0.0000000000000D+00
362  3.6100000000000D+00  0.0000000000000D+00  0.0000000000000D+00
363  3.6200000000000D+00  0.0000000000000D+00  0.0000000000000D+00
364  3.6300000000000D+00  0.0000000000000D+00  0.0000000000000D+00
365  3.6400000000000D+00  0.0000000000000D+00  0.0000000000000D+00
366  3.6500000000000D+00  0.0000000000000D+00  0.0000000000000D+00
367  3.6600000000000D+00  0.0000000000000D+00  0.0000000000000D+00
368  3.6700000000000D+00  0.0000000000000D+00  0.0000000000000D+00
369  3.6800000000000D+00  0.0000000000000D+00  0.0000000000000D+00
370  3.6900000000000D+00  0.0000000000000D+00  0.0000000000000D+00
371  3.7000000000000D+00  0.0000000000000D+00  0.0000000000000D+00
372  3.7100000000000D+00  0.0000000000000D+00  0.0000000000000D+00
373  3.7200000000000D+00  0.0000000000000D+00  0.0000000000000D+00
374  3.7300000000000D+00  0.0000000000000D+00  0.0000000000000D+00
375  3.7400000000000D+00  0.0000000000000D+00  0.0000000000000D+00
376  3.7500000000000D+00  0.0000000000000D+00  0.0000000000000D+00
377  3.7600000000000D+00  0.0000000000000D+00  0.0000000000000D+00
378  3.7700000000000D+00  0.0000000000000D+00  0.0000000000000D+00
379  3.7800000000000D+00  0.0000000000000D+00  0.0000000000000D+00
380  3.7900000000000D+00  0.0000000000000D+00  0.0000000000000D+00
381  3.8000000000000D+00  0.0000000000000D+00  0.0000000000000D+00
382  3.8100000000000D+00  0.0000000000000D+00  0.0000000000000D+00
383  3.8200000000000D+00  0.0000000000000D+00  0.0000000000000D+00
384  3.8300000000000D+00  0.0000000000000D+00  0.0000000000000D+00
385  3.8400000000000D+00  0.0000000000000D+00  0.0000000000000D+00
386  3.8500000000000D+00  0.0000000000000D+00  0.0000000000000D+00
387  3.8600000000000D+00  0.0000000000000D+00  0.0000000000000D+00
388  3.8700000000000D+00  0.0000000000000D+00  0.0000000000000D+00
389  3.8800000000000D+00  0.0000000000000D+00  0.0000000000000D+00
390  3.8900000000000D+00  0.0000000000000D+00  0.0000000000000D+00
391  3.9000000000000D+00  0.0000000000000D+00  0.0000000000000D+00
392  3.9100000000000D+00  0.0000000000000D+00  0.0000000000000D+00
393  3.9200000000000D+00  0.0000000000000D+00  0.0000000000000D+00
394  3.9300000000000D+00  0.0000000000000D+00  0.0000000000000D+00
395  3.9400000000000D+00  0.0000000000000D+00  0.0000000000000D+00
396  3.9500000000000D+00  0.0000000000000D+00  0.0000000000000D+00
397  3.9600000000000D+00  0.0000000000000D+00  0.0000000000000D+00
398  3.9700000000000D+00  0.0000000000000D+00  0.0000000000000D+00
399  3.9800000000000D+00  0.0000000000000D+00  0.0000000000000D+00
400  3.9900000000000D+00  0.0000000000000D+00  0.0000000000000D+00
401  4.0000000000000D+00  0.0000000000000D+00  0.0000000000000D+00
402  4.0100000000000D+00  0.0000000000000D+00  0.0000000000000D+00
403  4.0200000000000D+00  0.0000000000000D+00  0.0000000000000D+00
404  4.0300000000000D+00  0.0000000000000D+00  0.0000000000000D+00
405  4.0400000000000D+00  0.0000000000000D+00  0.0000000000000D+00
406  4.0500000000000D+00  0.0000000000000D+00  0.0000000000000D+00
407  4.0600000000000D+00  0.0000000000000D+00  0.0000000000000D+00
408  4.0700000000000D+00  0.0000000000000D+00  0.0000000000000D+00
409  4.0800000000000D+00  0.0000000000000D+00  0.0000000000000D+00
410  4.0900000000000D+00  0.0000000000000D+00  0.0000000000000D+00
411  4.1000000000000D+00  0.0000000000000D+00  0.0000000000000D+00
412  4.1100000000000D+00  0.0000000000000D+00  0.0000000000000D+00
413  4.1200000000000D+00  0.0000000000000D+00  0.0000000000000D+00
414  4.1300000000000D+00  0.0000000000000D+00  0.0000000000000D+00
415  4.1400000000000D+00  0.0000000000000D+00  0.0000000000000D+00
416  4.1500000000000D+00  0.0000000000000D+00  0.0000000000000D+00
417  4.1600000000000D+00  0.0000000000000D+00  0.0000000000000D+00
418  4.1700000000000D+00  0.0000000000000D+00  0.0000000000000D+00
419  4.1800000000000D+00  0.0000000000000D+00  0.0000000000000D+00
420  4.1900000000000D+00  0.0000000000000D+00  0.0000000000000D+00
421  4.2000000000000D+00  0.0000000000000D+00  0.0000000000000D+00
422  4.2100000000000D+00  0.0000000000000D+00  0.0000000000000D+00
423  4.2200000000000D+00  0.0000000000000D+00  0.0000000000000D+00
424  4.2300000000000D+00  0.0000000000000D+00  0.0000000000000D+00
425  4.2400000000000D+00  0.0000000000000D+00  0.0000000000000D+00
426  4.2500000000000D+00  0.0000000000000D+00  0.0000000000000D+00
427  4.2600000000000D+00  0.0000000000000D+00  0.0000000000000D+00
428  4.2700000000000D+00  0.0000000000000D+00  0.0000000000000D+00
429  4.2800000000000D+00  0.0000000000000D+00  0.0000000000000D+00
430  4.2900000000000D+00  0.0000000000000D+00  0.0000000000000D+00
431  4.3000000000000D+00  0.0000000000000D+00  0.0000000000000D+00
432  4.3100000000000D+00  0.0000000000000D+00  0.0000000000000D+00
433  4.3200000000000D+00  0.0000000000000D+00  0.0000000000000D+00
434  4.3300000000000D+00  0.0000000000000D+00  0.0000000000000D+00
435  4.3400000000000D+00  0.0000000000000D+00  0.0000000000000D+00
436  4.3500000000000D+00  0.0000000000000D+00  0.0000000000000D+00
437  4.3600000000000D+00  0.0000000000000D+00  0.0000000000000D+00
438  4.3700000000000D+00  0.0000000000000D+00  0.0000000000000D+00
439  4.3800000000000D+00  0.0000000000000D+00  0.0000000000000D+00
440  4.3900000000000D+00  0.0000000000000D+00  0.0000000000000D+00
441  4.4000000000000D+00  0.0000000000000D+00  0.0000000000000D+00
442  4.4100000000000D+00  0.0000000000000D+00  0.0000000000000D+00
443  4.4200000000000D+00  0.0000000000000D+00  0.0000000000000D+00