Fe    ONCVPSP-3.3.0  r_core=   1.26437   1.20546   1.56719
26.0000     16.0000      180430    zatom,zion,pspd
8 -116133   2     4   600     0    pspcod,pspxc,lmax,lloc,mmax,r2well
5.99000000  3.00000000  0.00000000    rchrg fchrg qchrg
2     4     2     0    nproj
3     1           extension_switch
4     3     0    nprojso
0                         1.4568122375592D+00  1.0135629887609D+01
1  0.0000000000000D+00  2.2542076538734D-10 -9.3425267522207D-13
2  1.0000000000000D-02 -2.8429469991996D-02  9.5069182188465D-02
3  2.0000000000000D-02 -5.6605199156709D-02  1.8984970478284D-01
4  3.0000000000000D-02 -8.4274869076278D-02  2.8405390753792D-01
5  4.0000000000000D-02 -1.1118899768370D-01  3.7739612584432D-01
6  5.0000000000000D-02 -1.3710233632558D-01  4.6959368089125D-01
7  6.0000000000000D-02 -1.6177524164968D-01  5.6036786064252D-01
8  7.0000000000000D-02 -1.8497501419108D-01  6.4944488856360D-01
9  8.0000000000000D-02 -2.0647719575632D-01  7.3655687703783D-01
10  9.0000000000000D-02 -2.2606681798403D-01  8.2144276241324D-01
11  1.0000000000000D-01 -2.4353959479152D-01  9.0384921862577D-01
12  1.1000000000000D-01 -2.5870305179765D-01  9.8353154635379D-01
13  1.2000000000000D-01 -2.7137758624004D-01  1.0602545346719D+00
14  1.3000000000000D-01 -2.8139745137712D-01  1.1337932921913D+00
15  1.4000000000000D-01 -2.8861165987860D-01  1.2039340446995D+00
16  1.5000000000000D-01 -2.9288480125884D-01  1.2704748963493D+00
17  1.6000000000000D-01 -2.9409776899201D-01  1.3332265514887D+00
18  1.7000000000000D-01 -2.9214839356154D-01  1.3920129942813D+00
19  1.8000000000000D-01 -2.8695197833507D-01  1.4466721233354D+00
20  1.9000000000000D-01 -2.7844173581464D-01  1.4970563386402D+00
21  2.0000000000000D-01 -2.6656912248531D-01  1.5430330782071D+00
22  2.1000000000000D-01 -2.5130407116890D-01  1.5844853019235D+00
23  2.2000000000000D-01 -2.3263512047628D-01  1.6213119202588D+00
24  2.3000000000000D-01 -2.1056944163833D-01  1.6534281656067D+00
25  2.4000000000000D-01 -1.8513276367377D-01  1.6807659042114D+00
26  2.5000000000000D-01 -1.5636919851825D-01  1.7032738868100D+00
27  2.6000000000000D-01 -1.2434096838563D-01  1.7209179363192D+00
28  2.7000000000000D-01 -8.9128038255834D-02  1.7336810711136D+00
29  2.8000000000000D-01 -5.0827656975244D-02  1.7415635626782D+00
30  2.9000000000000D-01 -9.5538110135377D-03  1.7445829266651D+00
31  3.0000000000000D-01  3.4563404562410D-02  1.7427738466531D+00
32  3.1000000000000D-01  8.1378492866301D-02  1.7361880301887D+00
33  3.2000000000000D-01  1.3073133426759D-01  1.7248939969767D+00
34  3.3000000000000D-01  1.8244803194296D-01  1.7089767993976D+00
35  3.4000000000000D-01  2.3634181777075D-01  1.6885376758366D+00
36  3.5000000000000D-01  2.9221401218463D-01  1.6636936376324D+00
37  3.6000000000000D-01  3.4985503141264D-01  1.6345769907776D+00
38  3.7000000000000D-01  4.0904543540240D-01  1.6013347938301D+00
39  3.8000000000000D-01  4.6955700967155D-01  1.5641282538227D+00
40  3.9000000000000D-01  5.3115387432440D-01  1.5231320622839D+00
41  4.0000000000000D-01  5.9359361354264D-01  1.4785336738012D+00
42  4.1000000000000D-01  6.5662841898431D-01  1.4305325298740D+00
43  4.2000000000000D-01  7.2000624071318D-01  1.3793392311053D+00
44  4.3000000000000D-01  7.8347193952284D-01  1.3251746610692D+00
45  4.4000000000000D-01  8.4676843481537D-01  1.2682690654717D+00
46  4.5000000000000D-01  9.0963784253670D-01  1.2088610904772D+00
47  4.6000000000000D-01  9.7182259805512D-01  1.1471967843135D+00
48  4.7000000000000D-01  1.0330665592900D+00  1.0835285664857D+00
49  4.8000000000000D-01  1.0931160858468D+00  1.0181141691271D+00
50  4.9000000000000D-01  1.1517210903883D+00  9.5121555518013D-01
51  5.0000000000000D-01  1.2086360589548D+00  8.8309781825145D-01
52  5.1000000000000D-01  1.2636210374454D+00  8.1402806909665D-01
53  5.2000000000000D-01  1.3164425819609D+00  7.4427431378416D-01
54  5.3000000000000D-01  1.3668746711951D+00  6.7410432864598D-01
55  5.4000000000000D-01  1.4146995795297D+00  6.0378453715618D-01
56  5.5000000000000D-01  1.4597087099308D+00  5.3357889388098D-01
57  5.6000000000000D-01  1.5017033861565D+00  4.6374778061857D-01
58  5.7000000000000D-01  1.5404956041597D+00  3.9454691979262D-01
59  5.8000000000000D-01  1.5759087428984D+00  3.2622631008215D-01
60  5.9000000000000D-01  1.6077782350437D+00  2.5902918916136D-01
61  6.0000000000000D-01  1.6359521982991D+00  1.9319102828944D-01
62  6.1000000000000D-01  1.6602920282072D+00  1.2893856333089D-01
63  6.2000000000000D-01  1.6806729534233D+00  6.6488866606426D-02
64  6.3000000000000D-01  1.6969845544694D+00  6.0484637700648D-03
65  6.4000000000000D-01  1.7091312469554D+00 -5.2187500313126D-02
66  6.5000000000000D-01  1.7170327301625D+00 -1.0803604295555D-01
67  6.6000000000000D-01  1.7206244017226D+00 -1.6132706882527D-01
68  6.7000000000000D-01  1.7198577389165D+00 -2.1190403570647D-01
69  6.8000000000000D-01  1.7147006468320D+00 -2.5962455791827D-01
70  6.9000000000000D-01  1.7051377733033D+00 -3.0436094475954D-01
71  7.0000000000000D-01  1.6911707901724D+00 -3.4600067164818D-01
72  7.1000000000000D-01  1.6728186400089D+00 -3.8444678192828D-01
73  7.2000000000000D-01  1.6501177469735D+00 -4.1961821763077D-01
74  7.3000000000000D-01  1.6231221900490D+00 -4.5145007778475D-01
75  7.4000000000000D-01  1.5919038363786D+00 -4.7989380319029D-01
76  7.5000000000000D-01  1.5565524319697D+00 -5.0491728687637D-01
77  7.6000000000000D-01  1.5171756465439D+00 -5.2650490977608D-01
78  7.7000000000000D-01  1.4738990688513D+00 -5.4465750145825D-01
79  7.8000000000000D-01  1.4268661483366D+00 -5.5939222605421D-01
80  7.9000000000000D-01  1.3762380786465D+00 -5.7074239381226D-01
81  8.0000000000000D-01  1.3221936181224D+00 -5.7875719899855D-01
82  8.1000000000000D-01  1.2649288421302D+00 -5.8350138514005D-01
83  8.2000000000000D-01  1.2046568218560D+00 -5.8505483887384D-01
84  8.3000000000000D-01  1.1416072240432D+00 -5.8351211392321D-01
85  8.4000000000000D-01  1.0760258260807D+00 -5.7898188696845D-01
86  8.5000000000000D-01  1.0081739408676D+00 -5.7158634741374D-01
87  8.6000000000000D-01  9.3832774598737D-01 -5.6146052327454D-01
88  8.7000000000000D-01  8.6677751193142D-01 -5.4875154561853D-01
89  8.8000000000000D-01  7.9382672440976D-01 -5.3361785418969D-01
90  8.9000000000000D-01  7.1979109618392D-01 -5.1622834702682D-01
91  9.0000000000000D-01  6.4499746434906D-01 -4.9676147705630D-01
92  9.1000000000000D-01  5.6978256957642D-01 -4.7540429879173D-01
93  9.2000000000000D-01  4.9449171449783D-01 -4.5235146841177D-01
94  9.3000000000000D-01  4.1947729916660D-01 -4.2780420061030D-01
95  9.4000000000000D-01  3.4509723235409D-01 -4.0196918571964D-01
96  9.5000000000000D-01  2.7171321833056D-01 -3.7505747069873D-01
97  9.6000000000000D-01  1.9968891971865D-01 -3.4728330765159D-01
98  9.7000000000000D-01  1.2938799800178D-01 -3.1886297359825D-01
99  9.8000000000000D-01  6.1172034259271D-02 -2.9001356525866D-01
100  9.9000000000000D-01 -4.6016662533610D-03 -2.6095177263174D-01
101  1.0000000000000D+00 -6.7582381042610D-02 -2.3189263515277D-01
102  1.0100000000000D+00 -1.2742838319048D-01 -2.0304828419572D-01
103  1.0200000000000D+00 -1.8380945341825D-01 -1.7462667564999D-01
104  1.0300000000000D+00 -2.3640948384655D-01 -1.4683031624525D-01
105  1.0400000000000D+00 -2.8492916500454D-01 -1.1985498721577D-01
106  1.0500000000000D+00 -3.2908874690836D-01 -9.3888468809458D-02
107  1.0600000000000D+00 -3.6863086423781D-01 -6.9109269014007D-02
108  1.0700000000000D+00 -4.0332341529375D-01 -4.5685359687269D-02
109  1.0800000000000D+00 -4.3296248871416D-01 -2.3772921722995D-02
110  1.0900000000000D+00 -4.5737534425653D-01 -3.5150965054841D-03
111  1.1000000000000D+00 -4.7642294244380D-01  1.4959107086406D-02
112  1.1100000000000D+00 -4.9000459002119D-01  3.1536504563212D-02
113  1.1200000000000D+00 -4.9805588455234D-01  4.6119460344314D-02
114  1.1300000000000D+00 -5.0053710990260D-01  5.8622765010193D-02
115  1.1400000000000D+00 -4.9742110679218D-01  6.8970102560980D-02
116  1.1500000000000D+00 -4.8869186316457D-01  7.7093523422828D-02
117  1.1600000000000D+00 -4.7434626518553D-01  8.2933796154350D-02
118  1.1700000000000D+00 -4.5439435771116D-01  8.6440340041846D-02
119  1.1800000000000D+00 -4.2885991830997D-01  8.7571241451921D-02
120  1.1900000000000D+00 -3.9778097065017D-01  8.6293254514471D-02
121  1.2000000000000D+00 -3.6121022469698D-01  8.2581784460100D-02
122  1.2100000000000D+00 -3.1921544718632D-01  7.6420856846007D-02
123  1.2200000000000D+00 -2.7187602153004D-01  6.7801968138550D-02
124  1.2300000000000D+00 -2.1908791204210D-01  5.6666264638810D-02
125  1.2400000000000D+00 -1.6328583939089D-01  4.3705339056916D-02
126  1.2500000000000D+00 -9.8057637366296D-02  2.7018996518651D-02
127  1.2600000000000D+00 -2.3196801842887D-02  6.5358822948232D-03
128  1.2700000000000D+00  8.6658568249014D-03 -2.3853245367762D-03
129  1.2800000000000D+00 -2.6153632507638D-04  7.1717542345885D-05
130  1.2900000000000D+00 -1.6966554867867D-03  4.6694792780631D-04
131  1.3000000000000D+00  2.5437788133940D-04 -6.8622580025321D-05
132  1.3100000000000D+00  2.3273203533860D-05 -6.2867327486869D-06
133  1.3200000000000D+00  9.1212511445474D-07 -3.9630709343531D-07
134  1.3300000000000D+00  0.0000000000000D+00  0.0000000000000D+00
135  1.3400000000000D+00  0.0000000000000D+00  0.0000000000000D+00
136  1.3500000000000D+00  0.0000000000000D+00  0.0000000000000D+00
137  1.3600000000000D+00  0.0000000000000D+00  0.0000000000000D+00
138  1.3700000000000D+00  0.0000000000000D+00  0.0000000000000D+00
139  1.3800000000000D+00  0.0000000000000D+00  0.0000000000000D+00
140  1.3900000000000D+00  0.0000000000000D+00  0.0000000000000D+00
141  1.4000000000000D+00  0.0000000000000D+00  0.0000000000000D+00
142  1.4100000000000D+00  0.0000000000000D+00  0.0000000000000D+00
143  1.4200000000000D+00  0.0000000000000D+00  0.0000000000000D+00
144  1.4300000000000D+00  0.0000000000000D+00  0.0000000000000D+00
145  1.4400000000000D+00  0.0000000000000D+00  0.0000000000000D+00
146  1.4500000000000D+00  0.0000000000000D+00  0.0000000000000D+00
147  1.4600000000000D+00  0.0000000000000D+00  0.0000000000000D+00
148  1.4700000000000D+00  0.0000000000000D+00  0.0000000000000D+00
149  1.4800000000000D+00  0.0000000000000D+00  0.0000000000000D+00
150  1.4900000000000D+00  0.0000000000000D+00  0.0000000000000D+00
151  1.5000000000000D+00  0.0000000000000D+00  0.0000000000000D+00
152  1.5100000000000D+00  0.0000000000000D+00  0.0000000000000D+00
153  1.5200000000000D+00  0.0000000000000D+00  0.0000000000000D+00
154  1.5300000000000D+00  0.0000000000000D+00  0.0000000000000D+00
155  1.5400000000000D+00  0.0000000000000D+00  0.0000000000000D+00
156  1.5500000000000D+00  0.0000000000000D+00  0.0000000000000D+00
157  1.5600000000000D+00  0.0000000000000D+00  0.0000000000000D+00
158  1.5700000000000D+00  0.0000000000000D+00  0.0000000000000D+00
159  1.5800000000000D+00  0.0000000000000D+00  0.0000000000000D+00
160  1.5900000000000D+00  0.0000000000000D+00  0.0000000000000D+00
161  1.6000000000000D+00  0.0000000000000D+00  0.0000000000000D+00
162  1.6100000000000D+00  0.0000000000000D+00  0.0000000000000D+00
163  1.6200000000000D+00  0.0000000000000D+00  0.0000000000000D+00
164  1.6300000000000D+00  0.0000000000000D+00  0.0000000000000D+00
165  1.6400000000000D+00  0.0000000000000D+00  0.0000000000000D+00
166  1.6500000000000D+00  0.0000000000000D+00  0.0000000000000D+00
167  1.6600000000000D+00  0.0000000000000D+00  0.0000000000000D+00
168  1.6700000000000D+00  0.0000000000000D+00  0.0000000000000D+00
169  1.6800000000000D+00  0.0000000000000D+00  0.0000000000000D+00
170  1.6900000000000D+00  0.0000000000000D+00  0.0000000000000D+00
171  1.7000000000000D+00  0.0000000000000D+00  0.0000000000000D+00
172  1.7100000000000D+00  0.0000000000000D+00  0.0000000000000D+00
173  1.7200000000000D+00  0.0000000000000D+00  0.0000000000000D+00
174  1.7300000000000D+00  0.0000000000000D+00  0.0000000000000D+00
175  1.7400000000000D+00  0.0000000000000D+00  0.0000000000000D+00
176  1.7500000000000D+00  0.0000000000000D+00  0.0000000000000D+00
177  1.7600000000000D+00  0.0000000000000D+00  0.0000000000000D+00
178  1.7700000000000D+00  0.0000000000000D+00  0.0000000000000D+00
179  1.7800000000000D+00  0.0000000000000D+00  0.0000000000000D+00
180  1.7900000000000D+00  0.0000000000000D+00  0.0000000000000D+00
181  1.8000000000000D+00  0.0000000000000D+00  0.0000000000000D+00
182  1.8100000000000D+00  0.0000000000000D+00  0.0000000000000D+00
183  1.8200000000000D+00  0.0000000000000D+00  0.0000000000000D+00
184  1.8300000000000D+00  0.0000000000000D+00  0.0000000000000D+00
185  1.8400000000000D+00  0.0000000000000D+00  0.0000000000000D+00
186  1.8500000000000D+00  0.0000000000000D+00  0.0000000000000D+00
187  1.8600000000000D+00  0.0000000000000D+00  0.0000000000000D+00
188  1.8700000000000D+00  0.0000000000000D+00  0.0000000000000D+00
189  1.8800000000000D+00  0.0000000000000D+00  0.0000000000000D+00
190  1.8900000000000D+00  0.0000000000000D+00  0.0000000000000D+00
191  1.9000000000000D+00  0.0000000000000D+00  0.0000000000000D+00
192  1.9100000000000D+00  0.0000000000000D+00  0.0000000000000D+00
193  1.9200000000000D+00  0.0000000000000D+00  0.0000000000000D+00
194  1.9300000000000D+00  0.0000000000000D+00  0.0000000000000D+00
195  1.9400000000000D+00  0.0000000000000D+00  0.0000000000000D+00
196  1.9500000000000D+00  0.0000000000000D+00  0.0000000000000D+00
197  1.9600000000000D+00  0.0000000000000D+00  0.0000000000000D+00
198  1.9700000000000D+00  0.0000000000000D+00  0.0000000000000D+00
199  1.9800000000000D+00  0.0000000000000D+00  0.0000000000000D+00
200  1.9900000000000D+00  0.0000000000000D+00  0.0000000000000D+00
201  2.0000000000000D+00  0.0000000000000D+00  0.0000000000000D+00
202  2.0100000000000D+00  0.0000000000000D+00  0.0000000000000D+00
203  2.0200000000000D+00  0.0000000000000D+00  0.0000000000000D+00
204  2.0300000000000D+00  0.0000000000000D+00  0.0000000000000D+00
205  2.0400000000000D+00  0.0000000000000D+00  0.0000000000000D+00
206  2.0500000000000D+00  0.0000000000000D+00  0.0000000000000D+00
207  2.0600000000000D+00  0.0000000000000D+00  0.0000000000000D+00
208  2.0700000000000D+00  0.0000000000000D+00  0.0000000000000D+00
209  2.0800000000000D+00  0.0000000000000D+00  0.0000000000000D+00
210  2.0900000000000D+00  0.0000000000000D+00  0.0000000000000D+00
211  2.1000000000000D+00  0.0000000000000D+00  0.0000000000000D+00
212  2.1100000000000D+00  0.0000000000000D+00  0.0000000000000D+00
213  2.1200000000000D+00  0.0000000000000D+00  0.0000000000000D+00
214  2.1300000000000D+00  0.0000000000000D+00  0.0000000000000D+00
215  2.1400000000000D+00  0.0000000000000D+00  0.0000000000000D+00
216  2.1500000000000D+00  0.0000000000000D+00  0.0000000000000D+00
217  2.1600000000000D+00  0.0000000000000D+00  0.0000000000000D+00
218  2.1700000000000D+00  0.0000000000000D+00  0.0000000000000D+00
219  2.1800000000000D+00  0.0000000000000D+00  0.0000000000000D+00
220  2.1900000000000D+00  0.0000000000000D+00  0.0000000000000D+00
221  2.2000000000000D+00  0.0000000000000D+00  0.0000000000000D+00
222  2.2100000000000D+00  0.0000000000000D+00  0.0000000000000D+00
223  2.2200000000000D+00  0.0000000000000D+00  0.0000000000000D+00
224  2.2300000000000D+00  0.0000000000000D+00  0.0000000000000D+00
225  2.2400000000000D+00  0.0000000000000D+00  0.0000000000000D+00
226  2.2500000000000D+00  0.0000000000000D+00  0.0000000000000D+00
227  2.2600000000000D+00  0.0000000000000D+00  0.0000000000000D+00
228  2.2700000000000D+00  0.0000000000000D+00  0.0000000000000D+00
229  2.2800000000000D+00  0.0000000000000D+00  0.0000000000000D+00
230  2.2900000000000D+00  0.0000000000000D+00  0.0000000000000D+00
231  2.3000000000000D+00  0.0000000000000D+00  0.0000000000000D+00
232  2.3100000000000D+00  0.0000000000000D+00  0.0000000000000D+00
233  2.3200000000000D+00  0.0000000000000D+00  0.0000000000000D+00
234  2.3300000000000D+00  0.0000000000000D+00  0.0000000000000D+00
235  2.3400000000000D+00  0.0000000000000D+00  0.0000000000000D+00
236  2.3500000000000D+00  0.0000000000000D+00  0.0000000000000D+00
237  2.3600000000000D+00  0.0000000000000D+00  0.0000000000000D+00
238  2.3700000000000D+00  0.0000000000000D+00  0.0000000000000D+00
239  2.3800000000000D+00  0.0000000000000D+00  0.0000000000000D+00
240  2.3900000000000D+00  0.0000000000000D+00  0.0000000000000D+00
241  2.4000000000000D+00  0.0000000000000D+00  0.0000000000000D+00
242  2.4100000000000D+00  0.0000000000000D+00  0.0000000000000D+00
243  2.4200000000000D+00  0.0000000000000D+00  0.0000000000000D+00
244  2.4300000000000D+00  0.0000000000000D+00  0.0000000000000D+00
245  2.4400000000000D+00  0.0000000000000D+00  0.0000000000000D+00
246  2.4500000000000D+00  0.0000000000000D+00  0.0000000000000D+00
247  2.4600000000000D+00  0.0000000000000D+00  0.0000000000000D+00
248  2.4700000000000D+00  0.0000000000000D+00  0.0000000000000D+00
249  2.4800000000000D+00  0.0000000000000D+00  0.0000000000000D+00
250  2.4900000000000D+00  0.0000000000000D+00  0.0000000000000D+00
251  2.5000000000000D+00  0.0000000000000D+00  0.0000000000000D+00
252  2.5100000000000D+00  0.0000000000000D+00  0.0000000000000D+00
253  2.5200000000000D+00  0.0000000000000D+00  0.0000000000000D+00
254  2.5300000000000D+00  0.0000000000000D+00  0.0000000000000D+00
255  2.5400000000000D+00  0.0000000000000D+00  0.0000000000000D+00
256  2.5500000000000D+00  0.0000000000000D+00  0.0000000000000D+00
257  2.5600000000000D+00  0.0000000000000D+00  0.0000000000000D+00
258  2.5700000000000D+00  0.0000000000000D+00  0.0000000000000D+00
259  2.5800000000000D+00  0.0000000000000D+00  0.0000000000000D+00
260  2.5900000000000D+00  0.0000000000000D+00  0.0000000000000D+00
261  2.6000000000000D+00  0.0000000000000D+00  0.0000000000000D+00
262  2.6100000000000D+00  0.0000000000000D+00  0.0000000000000D+00
263  2.6200000000000D+00  0.0000000000000D+00  0.0000000000000D+00
264  2.6300000000000D+00  0.0000000000000D+00  0.0000000000000D+00
265  2.6400000000000D+00  0.0000000000000D+00  0.0000000000000D+00
266  2.6500000000000D+00  0.0000000000000D+00  0.0000000000000D+00
267  2.6600000000000D+00  0.0000000000000D+00  0.0000000000000D+00
268  2.6700000000000D+00  0.0000000000000D+00  0.0000000000000D+00
269  2.6800000000000D+00  0.0000000000000D+00  0.0000000000000D+00
270  2.6900000000000D+00  0.0000000000000D+00  0.0000000000000D+00
271  2.7000000000000D+00  0.0000000000000D+00  0.0000000000000D+00
272  2.7100000000000D+00  0.0000000000000D+00  0.0000000000000D+00
273  2.7200000000000D+00  0.0000000000000D+00  0.0000000000000D+00
274  2.7300000000000D+00  0.0000000000000D+00  0.0000000000000D+00
275  2.7400000000000D+00  0.0000000000000D+00  0.0000000000000D+00
276  2.7500000000000D+00  0.0000000000000D+00  0.0000000000000D+00
277  2.7600000000000D+00  0.0000000000000D+00  0.0000000000000D+00
278  2.7700000000000D+00  0.0000000000000D+00  0.0000000000000D+00
279  2.7800000000000D+00  0.0000000000000D+00  0.0000000000000D+00
280  2.7900000000000D+00  0.0000000000000D+00  0.0000000000000D+00
281  2.8000000000000D+00  0.0000000000000D+00  0.0000000000000D+00
282  2.8100000000000D+00  0.0000000000000D+00  0.0000000000000D+00
283  2.8200000000000D+00  0.0000000000000D+00  0.0000000000000D+00
284  2.8300000000000D+00  0.0000000000000D+00  0.0000000000000D+00
285  2.8400000000000D+00  0.0000000000000D+00  0.0000000000000D+00
286  2.8500000000000D+00  0.0000000000000D+00  0.0000000000000D+00
287  2.8600000000000D+00  0.0000000000000D+00  0.0000000000000D+00
288  2.8700000000000D+00  0.0000000000000D+00  0.0000000000000D+00
289  2.8800000000000D+00  0.0000000000000D+00  0.0000000000000D+00
290  2.8900000000000D+00  0.0000000000000D+00  0.0000000000000D+00
291  2.9000000000000D+00  0.0000000000000D+00  0.0000000000000D+00
292  2.9100000000000D+00  0.0000000000000D+00  0.0000000000000D+00
293  2.9200000000000D+00  0.0000000000000D+00  0.0000000000000D+00
294  2.9300000000000D+00  0.0000000000000D+00  0.0000000000000D+00
295  2.9400000000000D+00  0.0000000000000D+00  0.0000000000000D+00
296  2.9500000000000D+00  0.0000000000000D+00  0.0000000000000D+00
297  2.9600000000000D+00  0.0000000000000D+00  0.0000000000000D+00
298  2.9700000000000D+00  0.0000000000000D+00  0.0000000000000D+00
299  2.9800000000000D+00  0.0000000000000D+00  0.0000000000000D+00
300  2.9900000000000D+00  0.0000000000000D+00  0.0000000000000D+00
301  3.0000000000000D+00  0.0000000000000D+00  0.0000000000000D+00
302  3.0100000000000D+00  0.0000000000000D+00  0.0000000000000D+00
303  3.0200000000000D+00  0.0000000000000D+00  0.0000000000000D+00
304  3.0300000000000D+00  0.0000000000000D+00  0.0000000000000D+00
305  3.0400000000000D+00  0.0000000000000D+00  0.0000000000000D+00
306  3.0500000000000D+00  0.0000000000000D+00  0.0000000000000D+00
307  3.0600000000000D+00  0.0000000000000D+00  0.0000000000000D+00
308  3.0700000000000D+00  0.0000000000000D+00  0.0000000000000D+00
309  3.0800000000000D+00  0.0000000000000D+00  0.0000000000000D+00
310  3.0900000000000D+00  0.0000000000000D+00  0.0000000000000D+00
311  3.1000000000000D+00  0.0000000000000D+00  0.0000000000000D+00
312  3.1100000000000D+00  0.0000000000000D+00  0.0000000000000D+00
313  3.1200000000000D+00  0.0000000000000D+00  0.0000000000000D+00
314  3.1300000000000D+00  0.0000000000000D+00  0.0000000000000D+00
315  3.1400000000000D+00  0.0000000000000D+00  0.0000000000000D+00
316  3.1500000000000D+00  0.0000000000000D+00  0.0000000000000D+00
317  3.1600000000000D+00  0.0000000000000D+00  0.0000000000000D+00
318  3.1700000000000D+00  0.0000000000000D+00  0.0000000000000D+00
319  3.1800000000000D+00  0.0000000000000D+00  0.0000000000000D+00
320  3.1900000000000D+00  0.0000000000000D+00  0.0000000000000D+00
321  3.2000000000000D+00  0.0000000000000D+00  0.0000000000000D+00
322  3.2100000000000D+00  0.0000000000000D+00  0.0000000000000D+00
323  3.2200000000000D+00  0.0000000000000D+00  0.0000000000000D+00
324  3.2300000000000D+00  0.0000000000000D+00  0.0000000000000D+00
325  3.2400000000000D+00  0.0000000000000D+00  0.0000000000000D+00
326  3.2500000000000D+00  0.0000000000000D+00  0.0000000000000D+00
327  3.2600000000000D+00  0.0000000000000D+00  0.0000000000000D+00
328  3.2700000000000D+00  0.0000000000000D+00  0.0000000000000D+00
329  3.2800000000000D+00  0.0000000000000D+00  0.0000000000000D+00
330  3.2900000000000D+00  0.0000000000000D+00  0.0000000000000D+00
331  3.3000000000000D+00  0.0000000000000D+00  0.0000000000000D+00
332  3.3100000000000D+00  0.0000000000000D+00  0.0000000000000D+00
333  3.3200000000000D+00  0.0000000000000D+00  0.0000000000000D+00
334  3.3300000000000D+00  0.0000000000000D+00  0.0000000000000D+00
335  3.3400000000000D+00  0.0000000000000D+00  0.0000000000000D+00
336  3.3500000000000D+00  0.0000000000000D+00  0.0000000000000D+00
337  3.3600000000000D+00  0.0000000000000D+00  0.0000000000000D+00
338  3.3700000000000D+00  0.0000000000000D+00  0.0000000000000D+00
339  3.3800000000000D+00  0.0000000000000D+00  0.0000000000000D+00
340  3.3900000000000D+00  0.0000000000000D+00  0.0000000000000D+00
341  3.4000000000000D+00  0.0000000000000D+00  0.0000000000000D+00
342  3.4100000000000D+00  0.0000000000000D+00  0.0000000000000D+00
343  3.4200000000000D+00  0.0000000000000D+00  0.0000000000000D+00
344  3.4300000000000D+00  0.0000000000000D+00  0.0000000000000D+00
345  3.4400000000000D+00  0.0000000000000D+00  0.0000000000000D+00
346  3.4500000000000D+00  0.0000000000000D+00  0.0000000000000D+00
347  3.4600000000000D+00  0.0000000000000D+00  0.0000000000000D+00
348  3.4700000000000D+00  0.0000000000000D+00  0.0000000000000D+00
349  3.4800000000000D+00  0.0000000000000D+00  0.0000000000000D+00
350  3.4900000000000D+00  0.0000000000000D+00  0.0000000000000D+00
351  3.5000000000000D+00  0.0000000000000D+00  0.0000000000000D+00
352  3.5100000000000D+00  0.0000000000000D+00  0.0000000000000D+00
353  3.5200000000000D+00  0.0000000000000D+00  0.0000000000000D+00
354  3.5300000000000D+00  0.0000000000000D+00  0.0000000000000D+00
355  3.5400000000000D+00  0.0000000000000D+00  0.0000000000000D+00
356  3.5500000000000D+00  0.0000000000000D+00  0.0000000000000D+00
357  3.5600000000000D+00  0.0000000000000D+00  0.0000000000000D+00
358  3.5700000000000D+00  0.0000000000000D+00  0.0000000000000D+00
359  3.5800000000000D+00  0.0000000000000D+00  0.0000000000000D+00
360  3.5900000000000D+00  0.0000000000000D+00  0.0000000000000D+00
361  3.6000000000000D+00  0.0000000000000D+00  0.0000000000000D+00
362  3.6100000000000D+00  0.0000000000000D+00  0.0000000000000D+00
363  3.6200000000000D+00  0.0000000000000D+00  0.0000000000000D+00
364  3.6300000000000D+00  0.0000000000000D+00  0.0000000000000D+00
365  3.6400000000000D+00  0.0000000000000D+00  0.0000000000000D+00
366  3.6500000000000D+00  0.0000000000000D+00  0.0000000000000D+00
367  3.6600000000000D+00  0.0000000000000D+00  0.0000000000000D+00
368  3.6700000000000D+00  0.0000000000000D+00  0.0000000000000D+00
369  3.6800000000000D+00  0.0000000000000D+00  0.0000000000000D+00
370  3.6900000000000D+00  0.0000000000000D+00  0.0000000000000D+00
371  3.7000000000000D+00  0.0000000000000D+00  0.0000000000000D+00
372  3.7100000000000D+00  0.0000000000000D+00  0.0000000000000D+00
373  3.7200000000000D+00  0.0000000000000D+00  0.0000000000000D+00
374  3.7300000000000D+00  0.0000000000000D+00  0.0000000000000D+00
375  3.7400000000000D+00  0.0000000000000D+00  0.0000000000000D+00
376  3.7500000000000D+00  0.0000000000000D+00  0.0000000000000D+00
377  3.7600000000000D+00  0.0000000000000D+00  0.0000000000000D+00
378  3.7700000000000D+00  0.0000000000000D+00  0.0000000000000D+00
379  3.7800000000000D+00  0.0000000000000D+00  0.0000000000000D+00
380  3.7900000000000D+00  0.0000000000000D+00  0.0000000000000D+00
381  3.8000000000000D+00  0.0000000000000D+00  0.0000000000000D+00
382  3.8100000000000D+00  0.0000000000000D+00  0.0000000000000D+00
383  3.8200000000000D+00  0.0000000000000D+00  0.0000000000000D+00
384  3.8300000000000D+00  0.0000000000000D+00  0.0000000000000D+00
385  3.8400000000000D+00  0.0000000000000D+00  0.0000000000000D+00
386  3.8500000000000D+00  0.0000000000000D+00  0.0000000000000D+00
387  3.8600000000000D+00  0.0000000000000D+00  0.0000000000000D+00
388  3.8700000000000D+00  0.0000000000000D+00  0.0000000000000D+00
389  3.8800000000000D+00  0.0000000000000D+00  0.0000000000000D+00
390  3.8900000000000D+00  0.0000000000000D+00  0.0000000000000D+00
391  3.9000000000000D+00  0.0000000000000D+00  0.0000000000000D+00
392  3.9100000000000D+00  0.0000000000000D+00  0.0000000000000D+00
393  3.9200000000000D+00  0.0000000000000D+00  0.0000000000000D+00
394  3.9300000000000D+00  0.0000000000000D+00  0.0000000000000D+00
395  3.9400000000000D+00  0.0000000000000D+00  0.0000000000000D+00
396  3.9500000000000D+00  0.0000000000000D+00  0.0000000000000D+00
397  3.9600000000000D+00  0.0000000000000D+00  0.0000000000000D+00
398  3.9700000000000D+00  0.0000000000000D+00  0.0000000000000D+00
399  3.9800000000000D+00  0.0000000000000D+00  0.0000000000000D+00
400  3.9900000000000D+00  0.0000000000000D+00  0.0000000000000D+00
401  4.0000000000000D+00  0.0000000000000D+00  0.0000000000000D+00
402  4.0100000000000D+00  0.0000000000000D+00  0.0000000000000D+00
403  4.0200000000000D+00  0.0000000000000D+00  0.0000000000000D+00
404  4.0300000000000D+00  0.0000000000000D+00  0.0000000000000D+00
405  4.0400000000000D+00  0.0000000000000D+00  0.0000000000000D+00
406  4.0500000000000D+00  0.0000000000000D+00  0.0000000000000D+00
407  4.0600000000000D+00  0.0000000000000D+00  0.0000000000000D+00
408  4.0700000000000D+00  0.0000000000000D+00  0.0000000000000D+00
409  4.0800000000000D+00  0.0000000000000D+00  0.0000000000000D+00
410  4.0900000000000D+00  0.0000000000000D+00  0.0000000000000D+00
411  4.1000000000000D+00  0.0000000000000D+00  0.0000000000000D+00
412  4.1100000000000D+00  0.0000000000000D+00  0.0000000000000D+00
413  4.1200000000000D+00  0.0000000000000D+00  0.0000000000000D+00
414  4.1300000000000D+00  0.0000000000000D+00  0.0000000000000D+00
415  4.1400000000000D+00  0.0000000000000D+00  0.0000000000000D+00
416  4.1500000000000D+00  0.0000000000000D+00  0.0000000000000D+00
417  4.1600000000000D+00  0.0000000000000D+00  0.0000000000000D+00
418  4.1700000000000D+00  0.0000000000000D+00  0.0000000000000D+00
419  4.1800000000000D+00  0.0000000000000D+00  0.0000000000000D+00
420  4.1900000000000D+00  0.0000000000000D+00  0.0000000000000D+00
421  4.2000000000000D+00  0.0000000000000D+00  0.0000000000000D+00
422  4.2100000000000D+00  0.0000000000000D+00  0.0000000000000D+00
423  4.2200000000000D+00  0.0000000000000D+00  0.0000000000000D+00
424  4.2300000000000D+00  0.0000000000000D+00  0.0000000000000D+00
425  4.2400000000000D+00  0.0000000000000D+00  0.0000000000000D+00
426  4.2500000000000D+00  0.0000000000000D+00  0.0000000000000D+00
427  4.2600000000000D+00  0.0000000000000D+00  0.0000000000000D+00
428  4.2700000000000D+00  0.0000000000000D+00  0.0000000000000D+00
429  4.2800000000000D+00  0.0000000000000D+00  0.0000000000000D+00
430  4.2900000000000D+00  0.0000000000000D+00  0.0000000000000D+00
431  4.3000000000000D+00  0.0000000000000D+00  0.0000000000000D+00
432  4.3100000000000D+00  0.0000000000000D+00  0.0000000000000D+00
433  4.3200000000000D+00  0.0000000000000D+00  0.0000000000000D+00
434  4.3300000000000D+00  0.0000000000000D+00  0.0000000000000D+00
435  4.3400000000000D+00  0.0000000000000D+00  0.0000000000000D+00
436  4.3500000000000D+00  0.0000000000000D+00  0.0000000000000D+00
437  4.3600000000000D+00  0.0000000000000D+00  0.0000000000000D+00
438  4.3700000000000D+00  0.0000000000000D+00  0.0000000000000D+00
439  4.3800000000000D+00  0.0000000000000D+00  0.0000000000000D+00
440  4.3900000000000D+00  0.0000000000000D+00  0.0000000000000D+00
441  4.4000000000000D+00  0.0000000000000D+00  0.0000000000000D+00
442  4.4100000000000D+00  0.0000000000000D+00  0.0000000000000D+00
443  4.4200000000000D+00  0.0000000000000D+00  0.0000000000000D+00