Ga    ONCVPSP-3.3.0  r_core=   1.66857   1.75011   1.90252
31.0000     13.0000      180430    zatom,zion,pspd
8 -116133   2     4   600     0    pspcod,pspxc,lmax,lloc,mmax,r2well
5.99000000  5.00000000  0.00000000    rchrg fchrg qchrg
2     4     2     0    nproj
3     1           extension_switch
4     3     0    nprojso
0                         1.1587673084017D+00  7.0563241143424D+00
1  0.0000000000000D+00 -3.1277999079649D-09  1.6734709364780D-09
2  1.0000000000000D-02  4.6425238672866D-02 -1.8025084881133D-03
3  2.0000000000000D-02  9.2269018488812D-02 -3.2935256625623D-03
4  3.0000000000000D-02  1.3695666508845D-01 -4.1652256611583D-03
5  4.0000000000000D-02  1.7992699820940D-01 -4.1170733295958D-03
6  5.0000000000000D-02  2.2063889229240D-01 -2.8593695172618D-03
7  6.0000000000000D-02  2.5857761559620D-01 -1.1667750147133D-04
8  7.0000000000000D-02  2.9326087769824D-01  4.3689071001355D-03
9  8.0000000000000D-02  3.2424451838597D-01  1.0834678895831D-02
10  9.0000000000000D-02  3.5112777479169D-01  1.9494471672637D-02
11  1.0000000000000D-01  3.7355806815132D-01  3.0536065221124D-02
12  1.1000000000000D-01  3.9123525672750D-01  4.4118878756539D-02
13  1.2000000000000D-01  4.0391530717541D-01  6.0371976590149D-02
14  1.3000000000000D-01  4.1141334288578D-01  7.9392408356814D-02
15  1.4000000000000D-01  4.1360603454740D-01  1.0124390251491D-01
16  1.5000000000000D-01  4.1043330526130D-01  1.2595592804009D-01
17  1.6000000000000D-01  4.0189932993550D-01  1.5352313527534D-01
18  1.7000000000000D-01  3.8807281631449D-01  1.8390518281764D-01
19  1.8000000000000D-01  3.6908656277216D-01  2.1702695315959D-01
20  1.9000000000000D-01  3.4513629583707D-01  2.5277915560607D-01
21  2.0000000000000D-01  3.1647879824294D-01  2.9101931079639D-01
22  2.1000000000000D-01  2.8342934602116D-01  3.3157310702519D-01
23  2.2000000000000D-01  2.4635848069460D-01  3.7423611451495D-01
24  2.3000000000000D-01  2.0568814991196D-01  4.1877583989159D-01
25  2.4000000000000D-01  1.6188725680205D-01  4.6493409939542D-01
26  2.5000000000000D-01  1.1546666485326D-01  5.1242968586003D-01
27  2.6000000000000D-01  6.6973711164280D-02  5.6096130125196D-01
28  2.7000000000000D-01  1.6986286403036D-02  6.1021072361666D-01
29  2.8000000000000D-01 -3.3893455307466D-02  6.5984617465495D-01
30  2.9000000000000D-01 -8.5045689140478D-02  7.0952585188671D-01
31  3.0000000000000D-01 -1.3583974400928D-01  7.5890158747019D-01
32  3.1000000000000D-01 -1.8564108500079D-01  8.0762259425743D-01
33  3.2000000000000D-01 -2.3381837811783D-01  8.5533925859496D-01
34  3.3000000000000D-01 -2.7975056047587D-01  9.0170693873789D-01
35  3.4000000000000D-01 -3.2283383874631D-01  9.4638972754245D-01
36  3.5000000000000D-01 -3.6248853910985D-01  9.8906413833969D-01
37  3.6000000000000D-01 -3.9816573327996D-01  1.0294226735722D+00
38  3.7000000000000D-01 -4.2935356726541D-01  1.0671772368887D+00
39  3.8000000000000D-01 -4.5558322244285D-01  1.1020623509299D+00
40  3.9000000000000D-01 -4.7643444217949D-01  1.1338381449846D+00
41  4.0000000000000D-01 -4.9154056164325D-01  1.1622930790366D+00
42  4.1000000000000D-01 -5.0059298352158D-01  1.1872463734229D+00
43  4.2000000000000D-01 -5.0334504808849D-01  1.2085501163749D+00
44  4.3000000000000D-01 -4.9961525235362D-01  1.2260910250612D+00
45  4.4000000000000D-01 -4.8928977983305D-01  1.2397918393857D+00
46  4.5000000000000D-01 -4.7232430972999D-01  1.2496123316544D+00
47  4.6000000000000D-01 -4.4874508192627D-01  1.2555499192892D+00
48  4.7000000000000D-01 -4.1864920208763D-01  1.2576398719836D+00
49  4.8000000000000D-01 -3.8220417929026D-01  1.2559551090223D+00
50  4.9000000000000D-01 -3.3964669680008D-01  1.2506055868771D+00
51  5.0000000000000D-01 -2.9128062489187D-01  1.2417372816059D+00
52  5.1000000000000D-01 -2.3747429279584D-01  1.2295307749592D+00
53  5.2000000000000D-01 -1.7865704491697D-01  1.2141994574110D+00
54  5.3000000000000D-01 -1.1531511429459D-01  1.1959873655113D+00
55  5.4000000000000D-01 -4.7986853789262D-02  1.1751666749826D+00
56  5.5000000000000D-01  2.2742627403859D-02  1.1520348747901D+00
57  5.6000000000000D-01  9.6247367674212D-02  1.1269116509709D+00
58  5.7000000000000D-01  1.7186693700155D-01  1.1001355122845D+00
59  5.8000000000000D-01  2.4891323523332D-01  1.0720601926737D+00
60  5.9000000000000D-01  3.2667763399635D-01  1.0430508681237D+00
61  6.0000000000000D-01  4.0443838754520D-01  1.0134802276828D+00
62  6.1000000000000D-01  4.8146823453836D-01  9.8372444020015D-01
63  6.2000000000000D-01  5.5704211026074D-01  9.5415905966965D-01
64  6.3000000000000D-01  6.3044488717255D-01  9.2515491296544D-01
65  6.4000000000000D-01  7.0097906090357D-01  8.9707401417871D-01
66  6.5000000000000D-01  7.6797229892614D-01  8.7026554972509D-01
67  6.6000000000000D-01  8.3078477014661D-01  8.4506197787459D-01
68  6.7000000000000D-01  8.8881617554335D-01  8.2177528536780D-01
69  6.8000000000000D-01  9.4151240271235D-01  8.0069344234379D-01
70  6.9000000000000D-01  9.8837173078660D-01  7.8207709489972D-01
71  7.0000000000000D-01  1.0289505165768D+00  7.6615653228313D-01
72  7.1000000000000D-01  1.0628682979531D+00  7.5312896297539D-01
73  7.2000000000000D-01  1.0898122563275D+00  7.4315613082504D-01
74  7.3000000000000D-01  1.1095409866556D+00  7.3636229890577D-01
75  7.4000000000000D-01  1.1218875304659D+00  7.3283262500506D-01
76  7.5000000000000D-01  1.1267616350563D+00  7.3261194859003D-01
77  7.6000000000000D-01  1.1241512100579D+00  7.3570400480786D-01
78  7.7000000000000D-01  1.1141229609939D+00  7.4207107659074D-01
79  7.8000000000000D-01  1.0968221881143D+00  7.5163409132677D-01
80  7.9000000000000D-01  1.0724717476665D+00  7.6427316382540D-01
81  8.0000000000000D-01  1.0413701816859D+00  7.7982858255037D-01
82  8.1000000000000D-01  1.0038890313016D+00  7.9810223133868D-01
83  8.2000000000000D-01  9.6046935736483D-01  8.1885943412373D-01
84  8.3000000000000D-01  9.1161750080613D-01  8.4183120559076D-01
85  8.4000000000000D-01  8.5790012342735D-01  8.6671688625903D-01
86  8.5000000000000D-01  7.9993857774869D-01  8.9318713625805D-01
87  8.6000000000000D-01  7.3840266196447D-01  9.2088725808951D-01
88  8.7000000000000D-01  6.7400382293928D-01  9.4944081498725D-01
89  8.8000000000000D-01  6.0748787641768D-01  9.7845350814482D-01
90  8.9000000000000D-01  5.3962731915653D-01  1.0075172731125D+00
91  9.0000000000000D-01  4.7121331245714D-01  1.0362145531055D+00
92  9.1000000000000D-01  4.0304742051747D-01  1.0641227048445D+00
93  9.2000000000000D-01  3.3593319009712D-01  1.0908184908884D+00
94  9.3000000000000D-01  2.7066766015326D-01  1.1158826112473D+00
95  9.4000000000000D-01  2.0803289133742D-01  1.1389042263803D+00
96  9.5000000000000D-01  1.4878760549294D-01  1.1594854235284D+00
97  9.6000000000000D-01  9.3659024651443D-02  1.1772455786509D+00
98  9.7000000000000D-01  4.3334997327533D-02  1.1918255671143D+00
99  9.8000000000000D-01 -1.5435026582805D-03  1.2028917776289D+00
100  9.9000000000000D-01 -4.0389423129467D-02  1.2101398857858D+00
101  1.0000000000000D+00 -7.2676148990162D-02  1.2132983458763D+00
102  1.0100000000000D+00 -9.7943414104451D-02  1.2121315624453D+00
103  1.0200000000000D+00 -1.1580254373882D-01  1.2064427062951D+00
104  1.0300000000000D+00 -1.2594096833070D-01  1.1960761431743D+00
105  1.0400000000000D+00 -1.2812595682423D-01  1.1809194473526D+00
106  1.0500000000000D+00 -1.2220752606086D-01  1.1609049766580D+00
107  1.0600000000000D+00 -1.0812049104209D-01  1.1360109899763D+00
108  1.0700000000000D+00 -8.5885629973078D-02  1.1062622930412D+00
109  1.0800000000000D+00 -5.5609947560551D-02  1.0717304034295D+00
110  1.0900000000000D+00 -1.7486028564245D-02  1.0325332302067D+00
111  1.1000000000000D+00  2.8209515284076D-02  9.8883426958196D-01
112  1.1100000000000D+00  8.1118493404584D-02  9.4084132244334D-01
113  1.1200000000000D+00  1.4080445735800D-01  8.8880474528069D-01
114  1.1300000000000D+00  2.0675686453316D-01  8.3301525025926D-01
115  1.1400000000000D+00  2.7839604383809D-01  7.7380127581798D-01
116  1.1500000000000D+00  3.5507891463187D-01  7.1152595346867D-01
117  1.1600000000000D+00  4.3610540135864D-01  6.4658370115590D-01
118  1.1700000000000D+00  5.2072548023652D-01  5.7939647679755D-01
119  1.1800000000000D+00  6.0814678531203D-01  5.1040973045741D-01
120  1.1900000000000D+00  6.9754269596402D-01  4.4008809639879D-01
121  1.2000000000000D+00  7.8806082232348D-01  3.6891086927928D-01
122  1.2100000000000D+00  8.7883180125320D-01  2.9736731079352D-01
123  1.2200000000000D+00  9.6897830997614D-01  2.2595183606076D-01
124  1.2300000000000D+00  1.0576242035284D+00  1.5515912956145D-01
125  1.2400000000000D+00  1.1439036800428D+00  8.5479241595793D-02
126  1.2500000000000D+00  1.2269703762071D+00  1.7392717161903D-02
127  1.2600000000000D+00  1.3060062973267D+00 -4.8634191932114D-02
128  1.2700000000000D+00  1.3802304863308D+00 -1.1215418084586D-01
129  1.2800000000000D+00  1.4489073382403D+00 -1.7274336161599D-01
130  1.2900000000000D+00  1.5113544728618D+00 -2.3000550272889D-01
131  1.3000000000000D+00  1.5669500786115D+00 -2.8357599195508D-01
132  1.3100000000000D+00  1.6151396473449D+00 -3.3312547970813D-01
133  1.3200000000000D+00  1.6554420309249D+00 -3.7836316592976D-01
134  1.3300000000000D+00  1.6874547467830D+00 -4.1903969166024D-01
135  1.3400000000000D+00  1.7108584762978D+00 -4.5494960520530D-01
136  1.3500000000000D+00  1.7254207107913D+00 -4.8593337862934D-01
137  1.3600000000000D+00  1.7309984907598D+00 -5.1187894543339D-01
138  1.3700000000000D+00  1.7275402190786D+00 -5.3272274887443D-01
139  1.3800000000000D+00  1.7150865204129D+00 -5.4845028588578D-01
140  1.3900000000000D+00  1.6937701281066D+00 -5.5909613633494D-01
141  1.4000000000000D+00  1.6638148116920D+00 -5.6474348426197D-01
142  1.4100000000000D+00  1.6255333343454D+00 -5.6552312510757D-01
143  1.4200000000000D+00  1.5793244715963D+00 -5.6161197520509D-01
144  1.4300000000000D+00  1.5256691178819D+00 -5.5323109732229D-01
145  1.4400000000000D+00  1.4651255067237D+00 -5.4064325558916D-01
146  1.4500000000000D+00  1.3983236133691D+00 -5.2415003603071D-01
147  1.4600000000000D+00  1.3259587707754D+00 -5.0408854875187D-01
148  1.4700000000000D+00  1.2487845841909D+00 -4.8082775671127D-01
149  1.4800000000000D+00  1.1676052043883D+00 -4.5476446264294D-01
150  1.4900000000000D+00  1.0832670391239D+00 -4.2631899604002D-01
151  1.5000000000000D+00  9.9664999587745D-01 -3.9593064932652D-01
152  1.5100000000000D+00  9.0865833130650D-01 -3.6405290291730D-01
153  1.5200000000000D+00  8.2021121764590D-01 -3.3114849746532D-01
154  1.5300000000000D+00  7.3223310877885D-01 -2.9768439687652D-01
155  1.5400000000000D+00  6.4564401633334D-01 -2.6412670047949D-01
156  1.5500000000000D+00  5.6134978829468D-01 -2.3093555317015D-01
157  1.5600000000000D+00  4.8023249497434D-01 -1.9856010985436D-01
158  1.5700000000000D+00  4.0314102971316D-01 -1.6743360527202D-01
159  1.5800000000000D+00  3.3088197136520D-01 -1.3796857561173D-01
160  1.5900000000000D+00  2.6421097328737D-01 -1.1055230863423D-01
161  1.6000000000000D+00  2.0382446605309D-01 -8.5542517359509D-02
162  1.6100000000000D+00  1.5035221244789D-01 -6.3263477450687D-02
163  1.6200000000000D+00  1.0438678616218D-01 -4.4017599642206D-02
164  1.6300000000000D+00  6.6267810470760D-02 -2.7993316204818D-02
165  1.6400000000000D+00  3.6337525127943D-02 -1.5372425849864D-02
166  1.6500000000000D+00  1.5614366430561D-02 -6.6152918412054D-03
167  1.6600000000000D+00  4.1471479192225D-03 -1.7626971461347D-03
168  1.6700000000000D+00 -3.4455289155760D-04  1.4127431535550D-04
169  1.6800000000000D+00 -7.7044888641483D-04  3.2463558756320D-04
170  1.6900000000000D+00  7.7447409693087D-05 -3.2661736729775D-05
171  1.7000000000000D+00  2.6233408290035D-04 -1.1073507851039D-04
172  1.7100000000000D+00 -1.0405297893461D-05  4.3778118668268D-06
173  1.7200000000000D+00 -4.9202288723505D-05  2.0709551409459D-05
174  1.7300000000000D+00  6.5034117337417D-09 -1.0914221167170D-09
175  1.7400000000000D+00  5.5820942270822D-08 -9.3680384180910D-09
176  1.7500000000000D+00  9.1844024529066D-10 -1.5413540425134D-10
177  1.7600000000000D+00  0.0000000000000D+00  0.0000000000000D+00
178  1.7700000000000D+00  0.0000000000000D+00  0.0000000000000D+00
179  1.7800000000000D+00  0.0000000000000D+00  0.0000000000000D+00
180  1.7900000000000D+00  0.0000000000000D+00  0.0000000000000D+00
181  1.8000000000000D+00  0.0000000000000D+00  0.0000000000000D+00
182  1.8100000000000D+00  0.0000000000000D+00  0.0000000000000D+00
183  1.8200000000000D+00  0.0000000000000D+00  0.0000000000000D+00
184  1.8300000000000D+00  0.0000000000000D+00  0.0000000000000D+00
185  1.8400000000000D+00  0.0000000000000D+00  0.0000000000000D+00
186  1.8500000000000D+00  0.0000000000000D+00  0.0000000000000D+00
187  1.8600000000000D+00  0.0000000000000D+00  0.0000000000000D+00
188  1.8700000000000D+00  0.0000000000000D+00  0.0000000000000D+00
189  1.8800000000000D+00  0.0000000000000D+00  0.0000000000000D+00
190  1.8900000000000D+00  0.0000000000000D+00  0.0000000000000D+00
191  1.9000000000000D+00  0.0000000000000D+00  0.0000000000000D+00
192  1.9100000000000D+00  0.0000000000000D+00  0.0000000000000D+00
193  1.9200000000000D+00  0.0000000000000D+00  0.0000000000000D+00
194  1.9300000000000D+00  0.0000000000000D+00  0.0000000000000D+00
195  1.9400000000000D+00  0.0000000000000D+00  0.0000000000000D+00
196  1.9500000000000D+00  0.0000000000000D+00  0.0000000000000D+00
197  1.9600000000000D+00  0.0000000000000D+00  0.0000000000000D+00
198  1.9700000000000D+00  0.0000000000000D+00  0.0000000000000D+00
199  1.9800000000000D+00  0.0000000000000D+00  0.0000000000000D+00
200  1.9900000000000D+00  0.0000000000000D+00  0.0000000000000D+00
201  2.0000000000000D+00  0.0000000000000D+00  0.0000000000000D+00
202  2.0100000000000D+00  0.0000000000000D+00  0.0000000000000D+00
203  2.0200000000000D+00  0.0000000000000D+00  0.0000000000000D+00
204  2.0300000000000D+00  0.0000000000000D+00  0.0000000000000D+00
205  2.0400000000000D+00  0.0000000000000D+00  0.0000000000000D+00
206  2.0500000000000D+00  0.0000000000000D+00  0.0000000000000D+00
207  2.0600000000000D+00  0.0000000000000D+00  0.0000000000000D+00
208  2.0700000000000D+00  0.0000000000000D+00  0.0000000000000D+00
209  2.0800000000000D+00  0.0000000000000D+00  0.0000000000000D+00
210  2.0900000000000D+00  0.0000000000000D+00  0.0000000000000D+00
211  2.1000000000000D+00  0.0000000000000D+00  0.0000000000000D+00
212  2.1100000000000D+00  0.0000000000000D+00  0.0000000000000D+00
213  2.1200000000000D+00  0.0000000000000D+00  0.0000000000000D+00
214  2.1300000000000D+00  0.0000000000000D+00  0.0000000000000D+00
215  2.1400000000000D+00  0.0000000000000D+00  0.0000000000000D+00
216  2.1500000000000D+00  0.0000000000000D+00  0.0000000000000D+00
217  2.1600000000000D+00  0.0000000000000D+00  0.0000000000000D+00
218  2.1700000000000D+00  0.0000000000000D+00  0.0000000000000D+00
219  2.1800000000000D+00  0.0000000000000D+00  0.0000000000000D+00
220  2.1900000000000D+00  0.0000000000000D+00  0.0000000000000D+00
221  2.2000000000000D+00  0.0000000000000D+00  0.0000000000000D+00
222  2.2100000000000D+00  0.0000000000000D+00  0.0000000000000D+00
223  2.2200000000000D+00  0.0000000000000D+00  0.0000000000000D+00
224  2.2300000000000D+00  0.0000000000000D+00  0.0000000000000D+00
225  2.2400000000000D+00  0.0000000000000D+00  0.0000000000000D+00
226  2.2500000000000D+00  0.0000000000000D+00  0.0000000000000D+00
227  2.2600000000000D+00  0.0000000000000D+00  0.0000000000000D+00
228  2.2700000000000D+00  0.0000000000000D+00  0.0000000000000D+00
229  2.2800000000000D+00  0.0000000000000D+00  0.0000000000000D+00
230  2.2900000000000D+00  0.0000000000000D+00  0.0000000000000D+00
231  2.3000000000000D+00  0.0000000000000D+00  0.0000000000000D+00
232  2.3100000000000D+00  0.0000000000000D+00  0.0000000000000D+00
233  2.3200000000000D+00  0.0000000000000D+00  0.0000000000000D+00
234  2.3300000000000D+00  0.0000000000000D+00  0.0000000000000D+00
235  2.3400000000000D+00  0.0000000000000D+00  0.0000000000000D+00
236  2.3500000000000D+00  0.0000000000000D+00  0.0000000000000D+00
237  2.3600000000000D+00  0.0000000000000D+00  0.0000000000000D+00
238  2.3700000000000D+00  0.0000000000000D+00  0.0000000000000D+00
239  2.3800000000000D+00  0.0000000000000D+00  0.0000000000000D+00
240  2.3900000000000D+00  0.0000000000000D+00  0.0000000000000D+00
241  2.4000000000000D+00  0.0000000000000D+00  0.0000000000000D+00
242  2.4100000000000D+00  0.0000000000000D+00  0.0000000000000D+00
243  2.4200000000000D+00  0.0000000000000D+00  0.0000000000000D+00
244  2.4300000000000D+00  0.0000000000000D+00  0.0000000000000D+00
245  2.4400000000000D+00  0.0000000000000D+00  0.0000000000000D+00
246  2.4500000000000D+00  0.0000000000000D+00  0.0000000000000D+00
247  2.4600000000000D+00  0.0000000000000D+00  0.0000000000000D+00
248  2.4700000000000D+00  0.0000000000000D+00  0.0000000000000D+00
249  2.4800000000000D+00  0.0000000000000D+00  0.0000000000000D+00
250  2.4900000000000D+00  0.0000000000000D+00  0.0000000000000D+00
251  2.5000000000000D+00  0.0000000000000D+00  0.0000000000000D+00
252  2.5100000000000D+00  0.0000000000000D+00  0.0000000000000D+00
253  2.5200000000000D+00  0.0000000000000D+00  0.0000000000000D+00
254  2.5300000000000D+00  0.0000000000000D+00  0.0000000000000D+00
255  2.5400000000000D+00  0.0000000000000D+00  0.0000000000000D+00
256  2.5500000000000D+00  0.0000000000000D+00  0.0000000000000D+00
257  2.5600000000000D+00  0.0000000000000D+00  0.0000000000000D+00
258  2.5700000000000D+00  0.0000000000000D+00  0.0000000000000D+00
259  2.5800000000000D+00  0.0000000000000D+00  0.0000000000000D+00
260  2.5900000000000D+00  0.0000000000000D+00  0.0000000000000D+00
261  2.6000000000000D+00  0.0000000000000D+00  0.0000000000000D+00
262  2.6100000000000D+00  0.0000000000000D+00  0.0000000000000D+00
263  2.6200000000000D+00  0.0000000000000D+00  0.0000000000000D+00
264  2.6300000000000D+00  0.0000000000000D+00  0.0000000000000D+00
265  2.6400000000000D+00  0.0000000000000D+00  0.0000000000000D+00
266  2.6500000000000D+00  0.0000000000000D+00  0.0000000000000D+00
267  2.6600000000000D+00  0.0000000000000D+00  0.0000000000000D+00
268  2.6700000000000D+00  0.0000000000000D+00  0.0000000000000D+00
269  2.6800000000000D+00  0.0000000000000D+00  0.0000000000000D+00
270  2.6900000000000D+00  0.0000000000000D+00  0.0000000000000D+00
271  2.7000000000000D+00  0.0000000000000D+00  0.0000000000000D+00
272  2.7100000000000D+00  0.0000000000000D+00  0.0000000000000D+00
273  2.7200000000000D+00  0.0000000000000D+00  0.0000000000000D+00
274  2.7300000000000D+00  0.0000000000000D+00  0.0000000000000D+00
275  2.7400000000000D+00  0.0000000000000D+00  0.0000000000000D+00
276  2.7500000000000D+00  0.0000000000000D+00  0.0000000000000D+00
277  2.7600000000000D+00  0.0000000000000D+00  0.0000000000000D+00
278  2.7700000000000D+00  0.0000000000000D+00  0.0000000000000D+00
279  2.7800000000000D+00  0.0000000000000D+00  0.0000000000000D+00
280  2.7900000000000D+00  0.0000000000000D+00  0.0000000000000D+00
281  2.8000000000000D+00  0.0000000000000D+00  0.0000000000000D+00
282  2.8100000000000D+00  0.0000000000000D+00  0.0000000000000D+00
283  2.8200000000000D+00  0.0000000000000D+00  0.0000000000000D+00
284  2.8300000000000D+00  0.0000000000000D+00  0.0000000000000D+00
285  2.8400000000000D+00  0.0000000000000D+00  0.0000000000000D+00
286  2.8500000000000D+00  0.0000000000000D+00  0.0000000000000D+00
287  2.8600000000000D+00  0.0000000000000D+00  0.0000000000000D+00
288  2.8700000000000D+00  0.0000000000000D+00  0.0000000000000D+00
289  2.8800000000000D+00  0.0000000000000D+00  0.0000000000000D+00
290  2.8900000000000D+00  0.0000000000000D+00  0.0000000000000D+00
291  2.9000000000000D+00  0.0000000000000D+00  0.0000000000000D+00
292  2.9100000000000D+00  0.0000000000000D+00  0.0000000000000D+00
293  2.9200000000000D+00  0.0000000000000D+00  0.0000000000000D+00
294  2.9300000000000D+00  0.0000000000000D+00  0.0000000000000D+00
295  2.9400000000000D+00  0.0000000000000D+00  0.0000000000000D+00
296  2.9500000000000D+00  0.0000000000000D+00  0.0000000000000D+00
297  2.9600000000000D+00  0.0000000000000D+00  0.0000000000000D+00
298  2.9700000000000D+00  0.0000000000000D+00  0.0000000000000D+00
299  2.9800000000000D+00  0.0000000000000D+00  0.0000000000000D+00
300  2.9900000000000D+00  0.0000000000000D+00  0.0000000000000D+00
301  3.0000000000000D+00  0.0000000000000D+00  0.0000000000000D+00
302  3.0100000000000D+00  0.0000000000000D+00  0.0000000000000D+00
303  3.0200000000000D+00  0.0000000000000D+00  0.0000000000000D+00
304  3.0300000000000D+00  0.0000000000000D+00  0.0000000000000D+00
305  3.0400000000000D+00  0.0000000000000D+00  0.0000000000000D+00
306  3.0500000000000D+00  0.0000000000000D+00  0.0000000000000D+00
307  3.0600000000000D+00  0.0000000000000D+00  0.0000000000000D+00
308  3.0700000000000D+00  0.0000000000000D+00  0.0000000000000D+00
309  3.0800000000000D+00  0.0000000000000D+00  0.0000000000000D+00
310  3.0900000000000D+00  0.0000000000000D+00  0.0000000000000D+00
311  3.1000000000000D+00  0.0000000000000D+00  0.0000000000000D+00
312  3.1100000000000D+00  0.0000000000000D+00  0.0000000000000D+00
313  3.1200000000000D+00  0.0000000000000D+00  0.0000000000000D+00
314  3.1300000000000D+00  0.0000000000000D+00  0.0000000000000D+00
315  3.1400000000000D+00  0.0000000000000D+00  0.0000000000000D+00
316  3.1500000000000D+00  0.0000000000000D+00  0.0000000000000D+00
317  3.1600000000000D+00  0.0000000000000D+00  0.0000000000000D+00
318  3.1700000000000D+00  0.0000000000000D+00  0.0000000000000D+00
319  3.1800000000000D+00  0.0000000000000D+00  0.0000000000000D+00
320  3.1900000000000D+00  0.0000000000000D+00  0.0000000000000D+00
321  3.2000000000000D+00  0.0000000000000D+00  0.0000000000000D+00
322  3.2100000000000D+00  0.0000000000000D+00  0.0000000000000D+00
323  3.2200000000000D+00  0.0000000000000D+00  0.0000000000000D+00
324  3.2300000000000D+00  0.0000000000000D+00  0.0000000000000D+00
325  3.2400000000000D+00  0.0000000000000D+00  0.0000000000000D+00
326  3.2500000000000D+00  0.0000000000000D+00  0.0000000000000D+00
327  3.2600000000000D+00  0.0000000000000D+00  0.0000000000000D+00
328  3.2700000000000D+00  0.0000000000000D+00  0.0000000000000D+00
329  3.2800000000000D+00  0.0000000000000D+00  0.0000000000000D+00
330  3.2900000000000D+00  0.0000000000000D+00  0.0000000000000D+00
331  3.3000000000000D+00  0.0000000000000D+00  0.0000000000000D+00
332  3.3100000000000D+00  0.0000000000000D+00  0.0000000000000D+00
333  3.3200000000000D+00  0.0000000000000D+00  0.0000000000000D+00
334  3.3300000000000D+00  0.0000000000000D+00  0.0000000000000D+00
335  3.3400000000000D+00  0.0000000000000D+00  0.0000000000000D+00
336  3.3500000000000D+00  0.0000000000000D+00  0.0000000000000D+00
337  3.3600000000000D+00  0.0000000000000D+00  0.0000000000000D+00
338  3.3700000000000D+00  0.0000000000000D+00  0.0000000000000D+00
339  3.3800000000000D+00  0.0000000000000D+00  0.0000000000000D+00
340  3.3900000000000D+00  0.0000000000000D+00  0.0000000000000D+00
341  3.4000000000000D+00  0.0000000000000D+00  0.0000000000000D+00
342  3.4100000000000D+00  0.0000000000000D+00  0.0000000000000D+00
343  3.4200000000000D+00  0.0000000000000D+00  0.0000000000000D+00
344  3.4300000000000D+00  0.0000000000000D+00  0.0000000000000D+00
345  3.4400000000000D+00  0.0000000000000D+00  0.0000000000000D+00
346  3.4500000000000D+00  0.0000000000000D+00  0.0000000000000D+00
347  3.4600000000000D+00  0.0000000000000D+00  0.0000000000000D+00
348  3.4700000000000D+00  0.0000000000000D+00  0.0000000000000D+00
349  3.4800000000000D+00  0.0000000000000D+00  0.0000000000000D+00
350  3.4900000000000D+00  0.0000000000000D+00  0.0000000000000D+00
351  3.5000000000000D+00  0.0000000000000D+00  0.0000000000000D+00
352  3.5100000000000D+00  0.0000000000000D+00  0.0000000000000D+00
353  3.5200000000000D+00  0.0000000000000D+00  0.0000000000000D+00
354  3.5300000000000D+00  0.0000000000000D+00  0.0000000000000D+00
355  3.5400000000000D+00  0.0000000000000D+00  0.0000000000000D+00
356  3.5500000000000D+00  0.0000000000000D+00  0.0000000000000D+00
357  3.5600000000000D+00  0.0000000000000D+00  0.0000000000000D+00
358  3.5700000000000D+00  0.0000000000000D+00  0.0000000000000D+00
359  3.5800000000000D+00  0.0000000000000D+00  0.0000000000000D+00
360  3.5900000000000D+00  0.0000000000000D+00  0.0000000000000D+00
361  3.6000000000000D+00  0.0000000000000D+00  0.0000000000000D+00
362  3.6100000000000D+00  0.0000000000000D+00  0.0000000000000D+00
363  3.6200000000000D+00  0.0000000000000D+00  0.0000000000000D+00
364  3.6300000000000D+00  0.0000000000000D+00  0.0000000000000D+00
365  3.6400000000000D+00  0.0000000000000D+00  0.0000000000000D+00
366  3.6500000000000D+00  0.0000000000000D+00  0.0000000000000D+00
367  3.6600000000000D+00  0.0000000000000D+00  0.0000000000000D+00
368  3.6700000000000D+00  0.0000000000000D+00  0.0000000000000D+00
369  3.6800000000000D+00  0.0000000000000D+00  0.0000000000000D+00
370  3.6900000000000D+00  0.0000000000000D+00  0.0000000000000D+00
371  3.7000000000000D+00  0.0000000000000D+00  0.0000000000000D+00
372  3.7100000000000D+00  0.0000000000000D+00  0.0000000000000D+00
373  3.7200000000000D+00  0.0000000000000D+00  0.0000000000000D+00
374  3.7300000000000D+00  0.0000000000000D+00  0.0000000000000D+00
375  3.7400000000000D+00  0.0000000000000D+00  0.0000000000000D+00
376  3.7500000000000D+00  0.0000000000000D+00  0.0000000000000D+00
377  3.7600000000000D+00  0.0000000000000D+00  0.0000000000000D+00
378  3.7700000000000D+00  0.0000000000000D+00  0.0000000000000D+00
379  3.7800000000000D+00  0.0000000000000D+00  0.0000000000000D+00
380  3.7900000000000D+00  0.0000000000000D+00  0.0000000000000D+00
381  3.8000000000000D+00  0.0000000000000D+00  0.0000000000000D+00
382  3.8100000000000D+00  0.0000000000000D+00  0.0000000000000D+00
383  3.8200000000000D+00  0.0000000000000D+00  0.0000000000000D+00
384  3.8300000000000D+00  0.0000000000000D+00  0.0000000000000D+00
385  3.8400000000000D+00  0.0000000000000D+00  0.0000000000000D+00
386  3.8500000000000D+00  0.0000000000000D+00  0.0000000000000D+00
387  3.8600000000000D+00  0.0000000000000D+00  0.0000000000000D+00
388  3.8700000000000D+00  0.0000000000000D+00  0.0000000000000D+00
389  3.8800000000000D+00  0.0000000000000D+00  0.0000000000000D+00
390  3.8900000000000D+00  0.0000000000000D+00  0.0000000000000D+00
391  3.9000000000000D+00  0.0000000000000D+00  0.0000000000000D+00
392  3.9100000000000D+00  0.0000000000000D+00  0.0000000000000D+00
393  3.9200000000000D+00  0.0000000000000D+00  0.0000000000000D+00
394  3.9300000000000D+00  0.0000000000000D+00  0.0000000000000D+00
395  3.9400000000000D+00  0.0000000000000D+00  0.0000000000000D+00
396  3.9500000000000D+00  0.0000000000000D+00  0.0000000000000D+00
397  3.9600000000000D+00  0.0000000000000D+00  0.0000000000000D+00
398  3.9700000000000D+00  0.0000000000000D+00  0.0000000000000D+00
399  3.9800000000000D+00  0.0000000000000D+00  0.0000000000000D+00
400  3.9900000000000D+00  0.0000000000000D+00  0.0000000000000D+00
401  4.0000000000000D+00  0.0000000000000D+00  0.0000000000000D+00
402  4.0100000000000D+00  0.0000000000000D+00  0.0000000000000D+00
403  4.0200000000000D+00  0.0000000000000D+00  0.0000000000000D+00
404  4.0300000000000D+00  0.0000000000000D+00  0.0000000000000D+00
405  4.0400000000000D+00  0.0000000000000D+00  0.0000000000000D+00
406  4.0500000000000D+00  0.0000000000000D+00  0.0000000000000D+00
407  4.0600000000000D+00  0.0000000000000D+00  0.0000000000000D+00
408  4.0700000000000D+00  0.0000000000000D+00  0.0000000000000D+00
409  4.0800000000000D+00  0.0000000000000D+00  0.0000000000000D+00
410  4.0900000000000D+00  0.0000000000000D+00  0.0000000000000D+00
411  4.1000000000000D+00  0.0000000000000D+00  0.0000000000000D+00
412  4.1100000000000D+00  0.0000000000000D+00  0.0000000000000D+00
413  4.1200000000000D+00  0.0000000000000D+00  0.0000000000000D+00
414  4.1300000000000D+00  0.0000000000000D+00  0.0000000000000D+00
415  4.1400000000000D+00  0.0000000000000D+00  0.0000000000000D+00
416  4.1500000000000D+00  0.0000000000000D+00  0.0000000000000D+00
417  4.1600000000000D+00  0.0000000000000D+00  0.0000000000000D+00
418  4.1700000000000D+00  0.0000000000000D+00  0.0000000000000D+00
419  4.1800000000000D+00  0.0000000000000D+00  0.0000000000000D+00
420  4.1900000000000D+00  0.0000000000000D+00  0.0000000000000D+00
421  4.2000000000000D+00  0.0000000000000D+00  0.0000000000000D+00
422  4.2100000000000D+00  0.0000000000000D+00  0.0000000000000D+00
423  4.2200000000000D+00  0.0000000000000D+00  0.0000000000000D+00
424  4.2300000000000D+00  0.0000000000000D+00  0.0000000000000D+00
425  4.2400000000000D+00  0.0000000000000D+00  0.0000000000000D+00
426  4.2500000000000D+00  0.0000000000000D+00  0.0000000000000D+00
427  4.2600000000000D+00  0.0000000000000D+00  0.0000000000000D+00
428  4.2700000000000D+00  0.0000000000000D+00  0.0000000000000D+00
429  4.2800000000000D+00  0.0000000000000D+00  0.0000000000000D+00
430  4.2900000000000D+00  0.0000000000000D+00  0.0000000000000D+00
431  4.3000000000000D+00  0.0000000000000D+00  0.0000000000000D+00
432  4.3100000000000D+00  0.0000000000000D+00  0.0000000000000D+00
433  4.3200000000000D+00  0.0000000000000D+00  0.0000000000000D+00
434  4.3300000000000D+00  0.0000000000000D+00  0.0000000000000D+00
435  4.3400000000000D+00  0.0000000000000D+00  0.0000000000000D+00
436  4.3500000000000D+00  0.0000000000000D+00  0.0000000000000D+00
437  4.3600000000000D+00  0.0000000000000D+00  0.0000000000000D+00
438  4.3700000000000D+00  0.0000000000000D+00  0.0000000000000D+00
439  4.3800000000000D+00  0.0000000000000D+00  0.0000000000000D+00
440  4.3900000000000D+00  0.0000000000000D+00  0.0000000000000D+00
441  4.4000000000000D+00  0.0000000000000D+00  0.0000000000000D+00
442  4.4100000000000D+00  0.0000000000000D+00  0.0000000000000D+00
443  4.4200000000000D+00  0.0000000000000D+00  0.0000000000000D+00