Ge    ONCVPSP-3.3.0  r_core=   1.91022   1.82122   1.91022
32.0000     14.0000      180506    zatom,zion,pspd
8 -116133   2     4   600     0    pspcod,pspxc,lmax,lloc,mmax,r2well
5.99000000  5.00000000  0.00000000    rchrg fchrg qchrg
2     3     2     0    nproj
3     1           extension_switch
4     3     0    nprojso
0                         5.8269070912325D-01  6.3387295555963D+00
1  0.0000000000000D+00 -3.5701996914383D-12 -4.6304071688041D-12
2  1.0000000000000D-02 -2.2722777108399D-02  3.5494527956928D-02
3  2.0000000000000D-02 -4.5407447649445D-02  7.0957888966171D-02
4  3.0000000000000D-02 -6.8015934948156D-02  1.0635897059571D-01
5  4.0000000000000D-02 -9.0510222215624D-02  1.4166676922622D-01
6  5.0000000000000D-02 -1.1285238274446D-01  1.7685044391205D-01
7  6.0000000000000D-02 -1.3500461040456D-01  2.1187936959095D-01
8  7.0000000000000D-02 -1.5692925053515D-01  2.4672318943100D-01
9  8.0000000000000D-02 -1.7858883132524D-01  2.8135186610772D-01
10  9.0000000000000D-02 -1.9994609577050D-01  3.1573573180998D-01
11  1.0000000000000D-01 -2.2096403428900D-01  3.4984553678049D-01
12  1.1000000000000D-01 -2.4160591807229D-01  3.8365249620396D-01
13  1.2000000000000D-01 -2.6183533324159D-01  4.1712833526562D-01
14  1.3000000000000D-01 -2.8161621587104D-01  4.5024533221184D-01
15  1.4000000000000D-01 -3.0091288793207D-01  4.8297635925603D-01
16  1.5000000000000D-01 -3.1969009420393D-01  5.1529492118425D-01
17  1.6000000000000D-01 -3.3791304018594D-01  5.4717519152729D-01
18  1.7000000000000D-01 -3.5554743103763D-01  5.7859204617961D-01
19  1.8000000000000D-01 -3.7255951156191D-01  6.0952109435869D-01
20  1.9000000000000D-01 -3.8891610723638D-01  6.3993870681336D-01
21  2.0000000000000D-01 -4.0458466628653D-01  6.6982204120415D-01
22  2.1000000000000D-01 -4.1953330278336D-01  6.9914906459439D-01
23  2.2000000000000D-01 -4.3373084073687D-01  7.2789857300638D-01
24  2.3000000000000D-01 -4.4714685914494D-01  7.5605020801297D-01
25  2.4000000000000D-01 -4.5975173794588D-01  7.8358447035106D-01
26  2.5000000000000D-01 -4.7151670481162D-01  8.1048273056011D-01
27  2.6000000000000D-01 -4.8241388270663D-01  8.3672723666456D-01
28  2.7000000000000D-01 -4.9241633812722D-01  8.6230111893589D-01
29  2.8000000000000D-01 -5.0149812992427D-01  8.8718839178560D-01
30  2.9000000000000D-01 -5.0963435860256D-01  9.1137395285677D-01
31  3.0000000000000D-01 -5.1680121597911D-01  9.3484357939675D-01
32  3.1000000000000D-01 -5.2297603507366D-01  9.5758392200917D-01
33  3.2000000000000D-01 -5.2813734009499D-01  9.7958249589750D-01
34  3.3000000000000D-01 -5.3226489637823D-01  1.0008276697267D+00
35  3.4000000000000D-01 -5.3533976012031D-01  1.0213086522425D+00
36  3.5000000000000D-01 -5.3734432775355D-01  1.0410154768005D+00
37  3.6000000000000D-01 -5.3826238479032D-01  1.0599389839684D+00
38  3.7000000000000D-01 -5.3807915396655D-01  1.0780708023768D+00
39  3.8000000000000D-01 -5.3678134250617D-01  1.0954033280013D+00
40  3.9000000000000D-01 -5.3435718832488D-01  1.1119297020701D+00
41  4.0000000000000D-01 -5.3079650498798D-01  1.1276437877961D+00
42  4.1000000000000D-01 -5.2609072523464D-01  1.1425401461419D+00
43  4.2000000000000D-01 -5.2023294287947D-01  1.1566140108278D+00
44  4.3000000000000D-01 -5.1321795290149D-01  1.1698612627997D+00
45  4.4000000000000D-01 -5.0504228953087D-01  1.1822784043753D+00
46  4.5000000000000D-01 -4.9570426214505D-01  1.1938625332873D+00
47  4.6000000000000D-01 -4.8520398878794D-01  1.2046113168446D+00
48  4.7000000000000D-01 -4.7354342712870D-01  1.2145229664277D+00
49  4.8000000000000D-01 -4.6072640268068D-01  1.2235962125359D+00
50  4.9000000000000D-01 -4.4675863410572D-01  1.2318302805950D+00
51  5.0000000000000D-01 -4.3164775543480D-01  1.2392248677323D+00
52  5.1000000000000D-01 -4.1540333504203D-01  1.2457801207173D+00
53  5.2000000000000D-01 -3.9803689121664D-01  1.2514966152571D+00
54  5.3000000000000D-01 -3.7956190418538D-01  1.2563753368294D+00
55  5.4000000000000D-01 -3.5999382444632D-01  1.2604176632197D+00
56  5.5000000000000D-01 -3.3935007728463D-01  1.2636253489231D+00
57  5.6000000000000D-01 -3.1765006335065D-01  1.2660005115535D+00
58  5.7000000000000D-01 -2.9491515519151D-01  1.2675456203901D+00
59  5.8000000000000D-01 -2.7116868963804D-01  1.2682634871767D+00
60  5.9000000000000D-01 -2.4643595596117D-01  1.2681572592707D+00
61  6.0000000000000D-01 -2.2074417972313D-01  1.2672304152239D+00
62  6.1000000000000D-01 -1.9412250226198D-01  1.2654867628568D+00
63  6.2000000000000D-01 -1.6660195576007D-01  1.2629304398707D+00
64  6.3000000000000D-01 -1.3821543386036D-01  1.2595659170235D+00
65  6.4000000000000D-01 -1.0899765780815D-01  1.2553980038713D+00
66  6.5000000000000D-01 -7.8985138107680D-02  1.2504318570638D+00
67  6.6000000000000D-01 -4.8216131698881D-02  1.2446729911546D+00
68  6.7000000000000D-01 -1.6730594670508D-02  1.2381272918712D+00
69  6.8000000000000D-01  1.5429869458536D-02  1.2308010317683D+00
70  6.9000000000000D-01  4.8222065845559D-02  1.2227008881645D+00
71  7.0000000000000D-01  8.1601268760198D-02  1.2138339632461D+00
72  7.1000000000000D-01  1.1552128627929D-01  1.2042078061993D+00
73  7.2000000000000D-01  1.4993452915639D-01  1.1938304372130D+00
74  7.3000000000000D-01  1.8479208376900D-01  1.1827103731763D+00
75  7.4000000000000D-01  2.2004378903433D-01  1.1708566548754D+00
76  7.5000000000000D-01  2.5563831717183D-01  1.1582788754786D+00
77  7.6000000000000D-01  2.9152325817931D-01  1.1449872100814D+00
78  7.7000000000000D-01  3.2764520787759D-01  1.1309924460680D+00
79  7.8000000000000D-01  3.6394985936797D-01  1.1163060140316D+00
80  7.9000000000000D-01  4.0038209773614D-01  1.1009400189844D+00
81  8.0000000000000D-01  4.3688609782552D-01  1.0849072715759D+00
82  8.1000000000000D-01  4.7340542489432D-01  1.0682213190287D+00
83  8.2000000000000D-01  5.0988313796052D-01  1.0508964754922D+00
84  8.3000000000000D-01  5.4626189563108D-01  1.0329478515111D+00
85  8.4000000000000D-01  5.8248406420297D-01  1.0143913822965D+00
86  8.5000000000000D-01  6.1849182781645D-01  9.9524385448921D-01
87  8.6000000000000D-01  6.5422730043417D-01  9.7552293110074D-01
88  8.7000000000000D-01  6.8963263941255D-01  9.5524717432067D-01
89  8.8000000000000D-01  7.2465016042662D-01  9.3443606588102D-01
90  8.9000000000000D-01  7.5922245350391D-01  9.1311002467385D-01
91  9.0000000000000D-01  7.9329249991802D-01  8.9129042132551D-01
92  9.1000000000000D-01  8.2680378968856D-01  8.6899958943984D-01
93  9.2000000000000D-01  8.5970043943009D-01  8.4626083323406D-01
94  9.3000000000000D-01  8.9192731028987D-01  8.2309843130398D-01
95  9.4000000000000D-01  9.2343012571105D-01  7.9953763627074D-01
96  9.5000000000000D-01  9.5415558875644D-01  7.7560467007760D-01
97  9.6000000000000D-01  9.8405149872583D-01  7.5132671472490D-01
98  9.7000000000000D-01  1.0130668667990D+00  7.2673189825142D-01
99  9.8000000000000D-01  1.0411520304360D+00  7.0184927579291D-01
100  9.9000000000000D-01  1.0682587662650D+00  6.7670880557252D-01
101  1.0000000000000D+00  1.0943404011916D+00  6.5134131970337D-01
102  1.0100000000000D+00  1.1193519214587D+00  6.2577848970983D-01
103  1.0200000000000D+00  1.1432500793937D+00  6.0005278670258D-01
104  1.0300000000000D+00  1.1659934975758D+00  5.7419743617168D-01
105  1.0400000000000D+00  1.1875427701633D+00  5.4824636739174D-01
106  1.0500000000000D+00  1.2078605611181D+00  5.2223415746416D-01
107  1.0600000000000D+00  1.2269116990730D+00  4.9619597005423D-01
108  1.0700000000000D+00  1.2446632685865D+00  4.7016748890998D-01
109  1.0800000000000D+00  1.2610846975360D+00  4.4418484628546D-01
110  1.0900000000000D+00  1.2761478404039D+00  4.1828454642173D-01
111  1.1000000000000D+00  1.2898270572155D+00  3.9250338427142D-01
112  1.1100000000000D+00  1.3020992878939D+00  3.6687835968667D-01
113  1.1200000000000D+00  1.3129441217996D+00  3.4144658731722D-01
114  1.1300000000000D+00  1.3223438622333D+00  3.1624520250320D-01
115  1.1400000000000D+00  1.3302835856816D+00  2.9131126347243D-01
116  1.1500000000000D+00  1.3367511955965D+00  2.6668165018576D-01
117  1.1600000000000D+00  1.3417374705025D+00  2.4239296019405D-01
118  1.1700000000000D+00  1.3452361062376D+00  2.1848140190812D-01
119  1.1800000000000D+00  1.3472437521375D+00  1.9498268570093D-01
120  1.1900000000000D+00  1.3477600409869D+00  1.7193191328663D-01
121  1.2000000000000D+00  1.3467876125627D+00  1.4936346584079D-01
122  1.2100000000000D+00  1.3443321306118D+00  1.2731089135107D-01
123  1.2200000000000D+00  1.3404022931126D+00  1.0580679170136D-01
124  1.2300000000000D+00  1.3350098356748D+00  8.4882710003758D-02
125  1.2400000000000D+00  1.3281695279527D+00  6.4569018714381D-02
126  1.2500000000000D+00  1.3198991629529D+00  4.4894809072579D-02
127  1.2600000000000D+00  1.3102195391265D+00  2.5887782410412D-02
128  1.2700000000000D+00  1.2991544351529D+00  7.5741438888096D-03
129  1.2800000000000D+00  1.2867305773381D+00 -1.0021500786738D-02
130  1.2900000000000D+00  1.2729775995521D+00 -2.6876245116436D-02
131  1.3000000000000D+00  1.2579279956538D+00 -4.2968977468870D-02
132  1.3100000000000D+00  1.2416170643679D+00 -5.8280472119983D-02
133  1.3200000000000D+00  1.2240828465800D+00 -7.2793475127381D-02
134  1.3300000000000D+00  1.2053660550415D+00 -8.6492784518873D-02
135  1.3400000000000D+00  1.1855099965000D+00 -9.9365324305755D-02
136  1.3500000000000D+00  1.1645604862554D+00 -1.1140021180760D-01
137  1.3600000000000D+00  1.1425657551968D+00 -1.2258881784594D-01
138  1.3700000000000D+00  1.1195763493719D+00 -1.3292481936778D-01
139  1.3800000000000D+00  1.0956450221430D+00 -1.4240424405490D-01
140  1.3900000000000D+00  1.0708266190448D+00 -1.5102550658272D-01
141  1.4000000000000D+00  1.0451779554258D+00 -1.5878943613473D-01
142  1.4100000000000D+00  1.0187576870045D+00 -1.6569929486534D-01
143  1.4200000000000D+00  9.9162617349758D-01 -1.7176078706872D-01
144  1.4300000000000D+00  9.6384533544250D-01 -1.7698205872554D-01
145  1.4400000000000D+00  9.3547850443760D-01 -1.8137368732988D-01
146  1.4500000000000D+00  9.0659026695799D-01 -1.8494866174834D-01
147  1.4600000000000D+00  8.7724630197867D-01 -1.8772235203229D-01
148  1.4700000000000D+00  8.4751321264749D-01 -1.8971246914131D-01
149  1.4800000000000D+00  8.1745835221947D-01 -1.9093901444615D-01
150  1.4900000000000D+00  7.8714964458295D-01 -1.9142421919614D-01
151  1.5000000000000D+00  7.5665539959020D-01 -1.9119247382016D-01
152  1.5100000000000D+00  7.2604412356445D-01 -1.9027024735899D-01
153  1.5200000000000D+00  6.9538432525448D-01 -1.8868599705657D-01
154  1.5300000000000D+00  6.6474431759676D-01 -1.8647006837675D-01
155  1.5400000000000D+00  6.3419201564354D-01 -1.8365458572026D-01
156  1.5500000000000D+00  6.0379473099347D-01 -1.8027333404042D-01
157  1.5600000000000D+00  5.7361896316619D-01 -1.7636163188033D-01
158  1.5700000000000D+00  5.4373018824044D-01 -1.7195619597441D-01
159  1.5800000000000D+00  5.1419264526134D-01 -1.6709499814060D-01
160  1.5900000000000D+00  4.8506912074175D-01 -1.6181711461524D-01
161  1.6000000000000D+00  4.5642073179082D-01 -1.5616256865293D-01
162  1.6100000000000D+00  4.2830670823298D-01 -1.5017216665875D-01
163  1.6200000000000D+00  4.0078417424621D-01 -1.4388732867104D-01
164  1.6300000000000D+00  3.7390792993000D-01 -1.3734991361344D-01
165  1.6400000000000D+00  3.4773023332403D-01 -1.3060204011583D-01
166  1.6500000000000D+00  3.2230058332492D-01 -1.2368590344886D-01
167  1.6600000000000D+00  2.9766550401774D-01 -1.1664358936265D-01
168  1.6700000000000D+00  2.7386833089407D-01 -1.0951688546545D-01
169  1.6800000000000D+00  2.5094899947214D-01 -1.0234709093502D-01
170  1.6900000000000D+00  2.2894383680368D-01 -9.5174825253975D-02
171  1.7000000000000D+00  2.0788535305714D-01 -8.8039836220035D-02
172  1.7100000000000D+00  1.8780205233624D-01 -8.0980811040898D-02
173  1.7200000000000D+00  1.6871820450013D-01 -7.4035181406846D-02
174  1.7300000000000D+00  1.5065371561598D-01 -6.7238946978846D-02
175  1.7400000000000D+00  1.3362399148433D-01 -6.0626498617046D-02
176  1.7500000000000D+00  1.1763939923226D-01 -5.4230377443955D-02
177  1.7600000000000D+00  1.0270525366609D-01 -4.8081126484585D-02
178  1.7700000000000D+00  8.8822807970786D-02 -4.2207308352960D-02
179  1.7800000000000D+00  7.5989895208376D-02 -3.6635475988680D-02
180  1.7900000000000D+00  6.4201679521570D-02 -3.1390187820842D-02
181  1.8000000000000D+00  5.3451594660207D-02 -2.6494055754288D-02
182  1.8100000000000D+00  4.3730907965798D-02 -2.1967575267914D-02
183  1.8200000000000D+00  3.5028471517668D-02 -1.7828998390301D-02
184  1.8300000000000D+00  2.7330936180778D-02 -1.4094280649585D-02
185  1.8400000000000D+00  2.0622626636808D-02 -1.0776983005500D-02
186  1.8500000000000D+00  1.4888035396781D-02 -7.8897994761914D-03
187  1.8600000000000D+00  1.0101645467366D-02 -5.4379920249839D-03
188  1.8700000000000D+00  6.2316657298098D-03 -3.4213268022912D-03
189  1.8800000000000D+00  3.2694765963755D-03 -1.8542865586787D-03
190  1.8900000000000D+00  1.2165134637811D-03 -7.5841667531561D-04
191  1.9000000000000D+00  2.2186028742883D-05 -1.1770504988158D-04
192  1.9100000000000D+00 -4.4692755783703D-04  1.4856614732392D-04
193  1.9200000000000D+00 -3.6542502865523D-04  1.4458289503943D-04
194  1.9300000000000D+00 -8.2652721490262D-05  3.4213760174366D-05
195  1.9400000000000D+00  7.2101935732621D-05 -3.0224570093550D-05
196  1.9500000000000D+00  5.2753756424410D-05 -2.2409874502433D-05
197  1.9600000000000D+00 -9.1047605344846D-06  3.7023025209122D-06
198  1.9700000000000D+00 -1.5611952805120D-05  6.3926547451588D-06
199  1.9800000000000D+00  3.7690967081378D-08 -1.2634574963361D-08
200  1.9900000000000D+00  1.2647552381611D-06 -4.2396484102804D-07
201  2.0000000000000D+00  5.4813388522917D-07 -1.8374266300818D-07
202  2.0100000000000D+00  0.0000000000000D+00  0.0000000000000D+00
203  2.0200000000000D+00  0.0000000000000D+00  0.0000000000000D+00
204  2.0300000000000D+00  0.0000000000000D+00  0.0000000000000D+00
205  2.0400000000000D+00  0.0000000000000D+00  0.0000000000000D+00
206  2.0500000000000D+00  0.0000000000000D+00  0.0000000000000D+00
207  2.0600000000000D+00  0.0000000000000D+00  0.0000000000000D+00
208  2.0700000000000D+00  0.0000000000000D+00  0.0000000000000D+00
209  2.0800000000000D+00  0.0000000000000D+00  0.0000000000000D+00
210  2.0900000000000D+00  0.0000000000000D+00  0.0000000000000D+00
211  2.1000000000000D+00  0.0000000000000D+00  0.0000000000000D+00
212  2.1100000000000D+00  0.0000000000000D+00  0.0000000000000D+00
213  2.1200000000000D+00  0.0000000000000D+00  0.0000000000000D+00
214  2.1300000000000D+00  0.0000000000000D+00  0.0000000000000D+00
215  2.1400000000000D+00  0.0000000000000D+00  0.0000000000000D+00
216  2.1500000000000D+00  0.0000000000000D+00  0.0000000000000D+00
217  2.1600000000000D+00  0.0000000000000D+00  0.0000000000000D+00
218  2.1700000000000D+00  0.0000000000000D+00  0.0000000000000D+00
219  2.1800000000000D+00  0.0000000000000D+00  0.0000000000000D+00
220  2.1900000000000D+00  0.0000000000000D+00  0.0000000000000D+00
221  2.2000000000000D+00  0.0000000000000D+00  0.0000000000000D+00
222  2.2100000000000D+00  0.0000000000000D+00  0.0000000000000D+00
223  2.2200000000000D+00  0.0000000000000D+00  0.0000000000000D+00
224  2.2300000000000D+00  0.0000000000000D+00  0.0000000000000D+00
225  2.2400000000000D+00  0.0000000000000D+00  0.0000000000000D+00
226  2.2500000000000D+00  0.0000000000000D+00  0.0000000000000D+00
227  2.2600000000000D+00  0.0000000000000D+00  0.0000000000000D+00
228  2.2700000000000D+00  0.0000000000000D+00  0.0000000000000D+00
229  2.2800000000000D+00  0.0000000000000D+00  0.0000000000000D+00
230  2.2900000000000D+00  0.0000000000000D+00  0.0000000000000D+00
231  2.3000000000000D+00  0.0000000000000D+00  0.0000000000000D+00
232  2.3100000000000D+00  0.0000000000000D+00  0.0000000000000D+00
233  2.3200000000000D+00  0.0000000000000D+00  0.0000000000000D+00
234  2.3300000000000D+00  0.0000000000000D+00  0.0000000000000D+00
235  2.3400000000000D+00  0.0000000000000D+00  0.0000000000000D+00
236  2.3500000000000D+00  0.0000000000000D+00  0.0000000000000D+00
237  2.3600000000000D+00  0.0000000000000D+00  0.0000000000000D+00
238  2.3700000000000D+00  0.0000000000000D+00  0.0000000000000D+00
239  2.3800000000000D+00  0.0000000000000D+00  0.0000000000000D+00
240  2.3900000000000D+00  0.0000000000000D+00  0.0000000000000D+00
241  2.4000000000000D+00  0.0000000000000D+00  0.0000000000000D+00
242  2.4100000000000D+00  0.0000000000000D+00  0.0000000000000D+00
243  2.4200000000000D+00  0.0000000000000D+00  0.0000000000000D+00
244  2.4300000000000D+00  0.0000000000000D+00  0.0000000000000D+00
245  2.4400000000000D+00  0.0000000000000D+00  0.0000000000000D+00
246  2.4500000000000D+00  0.0000000000000D+00  0.0000000000000D+00
247  2.4600000000000D+00  0.0000000000000D+00  0.0000000000000D+00
248  2.4700000000000D+00  0.0000000000000D+00  0.0000000000000D+00
249  2.4800000000000D+00  0.0000000000000D+00  0.0000000000000D+00
250  2.4900000000000D+00  0.0000000000000D+00  0.0000000000000D+00
251  2.5000000000000D+00  0.0000000000000D+00  0.0000000000000D+00
252  2.5100000000000D+00  0.0000000000000D+00  0.0000000000000D+00
253  2.5200000000000D+00  0.0000000000000D+00  0.0000000000000D+00
254  2.5300000000000D+00  0.0000000000000D+00  0.0000000000000D+00
255  2.5400000000000D+00  0.0000000000000D+00  0.0000000000000D+00
256  2.5500000000000D+00  0.0000000000000D+00  0.0000000000000D+00
257  2.5600000000000D+00  0.0000000000000D+00  0.0000000000000D+00
258  2.5700000000000D+00  0.0000000000000D+00  0.0000000000000D+00
259  2.5800000000000D+00  0.0000000000000D+00  0.0000000000000D+00
260  2.5900000000000D+00  0.0000000000000D+00  0.0000000000000D+00
261  2.6000000000000D+00  0.0000000000000D+00  0.0000000000000D+00
262  2.6100000000000D+00  0.0000000000000D+00  0.0000000000000D+00
263  2.6200000000000D+00  0.0000000000000D+00  0.0000000000000D+00
264  2.6300000000000D+00  0.0000000000000D+00  0.0000000000000D+00
265  2.6400000000000D+00  0.0000000000000D+00  0.0000000000000D+00
266  2.6500000000000D+00  0.0000000000000D+00  0.0000000000000D+00
267  2.6600000000000D+00  0.0000000000000D+00  0.0000000000000D+00
268  2.6700000000000D+00  0.0000000000000D+00  0.0000000000000D+00
269  2.6800000000000D+00  0.0000000000000D+00  0.0000000000000D+00
270  2.6900000000000D+00  0.0000000000000D+00  0.0000000000000D+00
271  2.7000000000000D+00  0.0000000000000D+00  0.0000000000000D+00
272  2.7100000000000D+00  0.0000000000000D+00  0.0000000000000D+00
273  2.7200000000000D+00  0.0000000000000D+00  0.0000000000000D+00
274  2.7300000000000D+00  0.0000000000000D+00  0.0000000000000D+00
275  2.7400000000000D+00  0.0000000000000D+00  0.0000000000000D+00
276  2.7500000000000D+00  0.0000000000000D+00  0.0000000000000D+00
277  2.7600000000000D+00  0.0000000000000D+00  0.0000000000000D+00
278  2.7700000000000D+00  0.0000000000000D+00  0.0000000000000D+00
279  2.7800000000000D+00  0.0000000000000D+00  0.0000000000000D+00
280  2.7900000000000D+00  0.0000000000000D+00  0.0000000000000D+00
281  2.8000000000000D+00  0.0000000000000D+00  0.0000000000000D+00
282  2.8100000000000D+00  0.0000000000000D+00  0.0000000000000D+00
283  2.8200000000000D+00  0.0000000000000D+00  0.0000000000000D+00
284  2.8300000000000D+00  0.0000000000000D+00  0.0000000000000D+00
285  2.8400000000000D+00  0.0000000000000D+00  0.0000000000000D+00
286  2.8500000000000D+00  0.0000000000000D+00  0.0000000000000D+00
287  2.8600000000000D+00  0.0000000000000D+00  0.0000000000000D+00
288  2.8700000000000D+00  0.0000000000000D+00  0.0000000000000D+00
289  2.8800000000000D+00  0.0000000000000D+00  0.0000000000000D+00
290  2.8900000000000D+00  0.0000000000000D+00  0.0000000000000D+00
291  2.9000000000000D+00  0.0000000000000D+00  0.0000000000000D+00
292  2.9100000000000D+00  0.0000000000000D+00  0.0000000000000D+00
293  2.9200000000000D+00  0.0000000000000D+00  0.0000000000000D+00
294  2.9300000000000D+00  0.0000000000000D+00  0.0000000000000D+00
295  2.9400000000000D+00  0.0000000000000D+00  0.0000000000000D+00
296  2.9500000000000D+00  0.0000000000000D+00  0.0000000000000D+00
297  2.9600000000000D+00  0.0000000000000D+00  0.0000000000000D+00
298  2.9700000000000D+00  0.0000000000000D+00  0.0000000000000D+00
299  2.9800000000000D+00  0.0000000000000D+00  0.0000000000000D+00
300  2.9900000000000D+00  0.0000000000000D+00  0.0000000000000D+00
301  3.0000000000000D+00  0.0000000000000D+00  0.0000000000000D+00
302  3.0100000000000D+00  0.0000000000000D+00  0.0000000000000D+00
303  3.0200000000000D+00  0.0000000000000D+00  0.0000000000000D+00
304  3.0300000000000D+00  0.0000000000000D+00  0.0000000000000D+00
305  3.0400000000000D+00  0.0000000000000D+00  0.0000000000000D+00
306  3.0500000000000D+00  0.0000000000000D+00  0.0000000000000D+00
307  3.0600000000000D+00  0.0000000000000D+00  0.0000000000000D+00
308  3.0700000000000D+00  0.0000000000000D+00  0.0000000000000D+00
309  3.0800000000000D+00  0.0000000000000D+00  0.0000000000000D+00
310  3.0900000000000D+00  0.0000000000000D+00  0.0000000000000D+00
311  3.1000000000000D+00  0.0000000000000D+00  0.0000000000000D+00
312  3.1100000000000D+00  0.0000000000000D+00  0.0000000000000D+00
313  3.1200000000000D+00  0.0000000000000D+00  0.0000000000000D+00
314  3.1300000000000D+00  0.0000000000000D+00  0.0000000000000D+00
315  3.1400000000000D+00  0.0000000000000D+00  0.0000000000000D+00
316  3.1500000000000D+00  0.0000000000000D+00  0.0000000000000D+00
317  3.1600000000000D+00  0.0000000000000D+00  0.0000000000000D+00
318  3.1700000000000D+00  0.0000000000000D+00  0.0000000000000D+00
319  3.1800000000000D+00  0.0000000000000D+00  0.0000000000000D+00
320  3.1900000000000D+00  0.0000000000000D+00  0.0000000000000D+00
321  3.2000000000000D+00  0.0000000000000D+00  0.0000000000000D+00
322  3.2100000000000D+00  0.0000000000000D+00  0.0000000000000D+00
323  3.2200000000000D+00  0.0000000000000D+00  0.0000000000000D+00
324  3.2300000000000D+00  0.0000000000000D+00  0.0000000000000D+00
325  3.2400000000000D+00  0.0000000000000D+00  0.0000000000000D+00
326  3.2500000000000D+00  0.0000000000000D+00  0.0000000000000D+00
327  3.2600000000000D+00  0.0000000000000D+00  0.0000000000000D+00
328  3.2700000000000D+00  0.0000000000000D+00  0.0000000000000D+00
329  3.2800000000000D+00  0.0000000000000D+00  0.0000000000000D+00
330  3.2900000000000D+00  0.0000000000000D+00  0.0000000000000D+00
331  3.3000000000000D+00  0.0000000000000D+00  0.0000000000000D+00
332  3.3100000000000D+00  0.0000000000000D+00  0.0000000000000D+00
333  3.3200000000000D+00  0.0000000000000D+00  0.0000000000000D+00
334  3.3300000000000D+00  0.0000000000000D+00  0.0000000000000D+00
335  3.3400000000000D+00  0.0000000000000D+00  0.0000000000000D+00
336  3.3500000000000D+00  0.0000000000000D+00  0.0000000000000D+00
337  3.3600000000000D+00  0.0000000000000D+00  0.0000000000000D+00
338  3.3700000000000D+00  0.0000000000000D+00  0.0000000000000D+00
339  3.3800000000000D+00  0.0000000000000D+00  0.0000000000000D+00
340  3.3900000000000D+00  0.0000000000000D+00  0.0000000000000D+00
341  3.4000000000000D+00  0.0000000000000D+00  0.0000000000000D+00
342  3.4100000000000D+00  0.0000000000000D+00  0.0000000000000D+00
343  3.4200000000000D+00  0.0000000000000D+00  0.0000000000000D+00
344  3.4300000000000D+00  0.0000000000000D+00  0.0000000000000D+00
345  3.4400000000000D+00  0.0000000000000D+00  0.0000000000000D+00
346  3.4500000000000D+00  0.0000000000000D+00  0.0000000000000D+00
347  3.4600000000000D+00  0.0000000000000D+00  0.0000000000000D+00
348  3.4700000000000D+00  0.0000000000000D+00  0.0000000000000D+00
349  3.4800000000000D+00  0.0000000000000D+00  0.0000000000000D+00
350  3.4900000000000D+00  0.0000000000000D+00  0.0000000000000D+00
351  3.5000000000000D+00  0.0000000000000D+00  0.0000000000000D+00
352  3.5100000000000D+00  0.0000000000000D+00  0.0000000000000D+00
353  3.5200000000000D+00  0.0000000000000D+00  0.0000000000000D+00
354  3.5300000000000D+00  0.0000000000000D+00  0.0000000000000D+00
355  3.5400000000000D+00  0.0000000000000D+00  0.0000000000000D+00
356  3.5500000000000D+00  0.0000000000000D+00  0.0000000000000D+00
357  3.5600000000000D+00  0.0000000000000D+00  0.0000000000000D+00
358  3.5700000000000D+00  0.0000000000000D+00  0.0000000000000D+00
359  3.5800000000000D+00  0.0000000000000D+00  0.0000000000000D+00
360  3.5900000000000D+00  0.0000000000000D+00  0.0000000000000D+00
361  3.6000000000000D+00  0.0000000000000D+00  0.0000000000000D+00
362  3.6100000000000D+00  0.0000000000000D+00  0.0000000000000D+00
363  3.6200000000000D+00  0.0000000000000D+00  0.0000000000000D+00
364  3.6300000000000D+00  0.0000000000000D+00  0.0000000000000D+00
365  3.6400000000000D+00  0.0000000000000D+00  0.0000000000000D+00
366  3.6500000000000D+00  0.0000000000000D+00  0.0000000000000D+00
367  3.6600000000000D+00  0.0000000000000D+00  0.0000000000000D+00
368  3.6700000000000D+00  0.0000000000000D+00  0.0000000000000D+00
369  3.6800000000000D+00  0.0000000000000D+00  0.0000000000000D+00
370  3.6900000000000D+00  0.0000000000000D+00  0.0000000000000D+00
371  3.7000000000000D+00  0.0000000000000D+00  0.0000000000000D+00
372  3.7100000000000D+00  0.0000000000000D+00  0.0000000000000D+00
373  3.7200000000000D+00  0.0000000000000D+00  0.0000000000000D+00
374  3.7300000000000D+00  0.0000000000000D+00  0.0000000000000D+00
375  3.7400000000000D+00  0.0000000000000D+00  0.0000000000000D+00
376  3.7500000000000D+00  0.0000000000000D+00  0.0000000000000D+00
377  3.7600000000000D+00  0.0000000000000D+00  0.0000000000000D+00
378  3.7700000000000D+00  0.0000000000000D+00  0.0000000000000D+00
379  3.7800000000000D+00  0.0000000000000D+00  0.0000000000000D+00
380  3.7900000000000D+00  0.0000000000000D+00  0.0000000000000D+00
381  3.8000000000000D+00  0.0000000000000D+00  0.0000000000000D+00
382  3.8100000000000D+00  0.0000000000000D+00  0.0000000000000D+00
383  3.8200000000000D+00  0.0000000000000D+00  0.0000000000000D+00
384  3.8300000000000D+00  0.0000000000000D+00  0.0000000000000D+00
385  3.8400000000000D+00  0.0000000000000D+00  0.0000000000000D+00
386  3.8500000000000D+00  0.0000000000000D+00  0.0000000000000D+00
387  3.8600000000000D+00  0.0000000000000D+00  0.0000000000000D+00
388  3.8700000000000D+00  0.0000000000000D+00  0.0000000000000D+00
389  3.8800000000000D+00  0.0000000000000D+00  0.0000000000000D+00
390  3.8900000000000D+00  0.0000000000000D+00  0.0000000000000D+00
391  3.9000000000000D+00  0.0000000000000D+00  0.0000000000000D+00
392  3.9100000000000D+00  0.0000000000000D+00  0.0000000000000D+00
393  3.9200000000000D+00  0.0000000000000D+00  0.0000000000000D+00
394  3.9300000000000D+00  0.0000000000000D+00  0.0000000000000D+00
395  3.9400000000000D+00  0.0000000000000D+00  0.0000000000000D+00
396  3.9500000000000D+00  0.0000000000000D+00  0.0000000000000D+00
397  3.9600000000000D+00  0.0000000000000D+00  0.0000000000000D+00
398  3.9700000000000D+00  0.0000000000000D+00  0.0000000000000D+00
399  3.9800000000000D+00  0.0000000000000D+00  0.0000000000000D+00
400  3.9900000000000D+00  0.0000000000000D+00  0.0000000000000D+00
401  4.0000000000000D+00  0.0000000000000D+00  0.0000000000000D+00
402  4.0100000000000D+00  0.0000000000000D+00  0.0000000000000D+00
403  4.0200000000000D+00  0.0000000000000D+00  0.0000000000000D+00
404  4.0300000000000D+00  0.0000000000000D+00  0.0000000000000D+00
405  4.0400000000000D+00  0.0000000000000D+00  0.0000000000000D+00
406  4.0500000000000D+00  0.0000000000000D+00  0.0000000000000D+00
407  4.0600000000000D+00  0.0000000000000D+00  0.0000000000000D+00
408  4.0700000000000D+00  0.0000000000000D+00  0.0000000000000D+00
409  4.0800000000000D+00  0.0000000000000D+00  0.0000000000000D+00
410  4.0900000000000D+00  0.0000000000000D+00  0.0000000000000D+00
411  4.1000000000000D+00  0.0000000000000D+00  0.0000000000000D+00
412  4.1100000000000D+00  0.0000000000000D+00  0.0000000000000D+00
413  4.1200000000000D+00  0.0000000000000D+00  0.0000000000000D+00
414  4.1300000000000D+00  0.0000000000000D+00  0.0000000000000D+00
415  4.1400000000000D+00  0.0000000000000D+00  0.0000000000000D+00
416  4.1500000000000D+00  0.0000000000000D+00  0.0000000000000D+00
417  4.1600000000000D+00  0.0000000000000D+00  0.0000000000000D+00
418  4.1700000000000D+00  0.0000000000000D+00  0.0000000000000D+00
419  4.1800000000000D+00  0.0000000000000D+00  0.0000000000000D+00
420  4.1900000000000D+00  0.0000000000000D+00  0.0000000000000D+00
421  4.2000000000000D+00  0.0000000000000D+00  0.0000000000000D+00
422  4.2100000000000D+00  0.0000000000000D+00  0.0000000000000D+00
423  4.2200000000000D+00  0.0000000000000D+00  0.0000000000000D+00
424  4.2300000000000D+00  0.0000000000000D+00  0.0000000000000D+00
425  4.2400000000000D+00  0.0000000000000D+00  0.0000000000000D+00
426  4.2500000000000D+00  0.0000000000000D+00  0.0000000000000D+00
427  4.2600000000000D+00  0.0000000000000D+00  0.0000000000000D+00
428  4.2700000000000D+00  0.0000000000000D+00  0.0000000000000D+00
429  4.2800000000000D+00  0.0000000000000D+00  0.0000000000000D+00
430  4.2900000000000D+00  0.0000000000000D+00  0.0000000000000D+00
431  4.3000000000000D+00  0.0000000000000D+00  0.0000000000000D+00
432  4.3100000000000D+00  0.0000000000000D+00  0.0000000000000D+00
433  4.3200000000000D+00  0.0000000000000D+00  0.0000000000000D+00
434  4.3300000000000D+00  0.0000000000000D+00  0.0000000000000D+00
435  4.3400000000000D+00  0.0000000000000D+00  0.0000000000000D+00
436  4.3500000000000D+00  0.0000000000000D+00  0.0000000000000D+00
437  4.3600000000000D+00  0.0000000000000D+00  0.0000000000000D+00
438  4.3700000000000D+00  0.0000000000000D+00  0.0000000000000D+00
439  4.3800000000000D+00  0.0000000000000D+00  0.0000000000000D+00
440  4.3900000000000D+00  0.0000000000000D+00  0.0000000000000D+00
441  4.4000000000000D+00  0.0000000000000D+00  0.0000000000000D+00
442  4.4100000000000D+00  0.0000000000000D+00  0.0000000000000D+00
443  4.4200000000000D+00  0.0000000000000D+00  0.0000000000000D+00