Hf    ONCVPSP-3.3.0  r_core=   1.71613   1.71613   1.71613   2.42541
72.0000     12.0000      180429    zatom,zion,pspd
8 -116133   3     4   600     0    pspcod,pspxc,lmax,lloc,mmax,r2well
5.99000000  5.40000000  0.00000000    rchrg fchrg qchrg
2     4     4     4    nproj
3     1           extension_switch
4     4     4    nprojso
0                        -5.2883526030645D-01  5.8814681906442D+00
1  0.0000000000000D+00  1.0445886378108D-09  4.7436832240066D-11
2  1.0000000000000D-02 -5.5266726478787D-02  5.1744158246785D-02
3  2.0000000000000D-02 -1.1021775485758D-01  1.0342635285544D-01
4  3.0000000000000D-02 -1.6453995327913D-01  1.5498462687767D-01
5  4.0000000000000D-02 -2.1792529670828D-01  2.0635703775001D-01
6  5.0000000000000D-02 -2.7007335645248D-01  2.5748166698716D-01
7  6.0000000000000D-02 -3.2069371376140D-01  3.0829663284228D-01
8  7.0000000000000D-02 -3.6950827343639D-01  3.5874010686725D-01
9  8.0000000000000D-02 -4.1625345442546D-01  4.0875033525818D-01
10  9.0000000000000D-02 -4.6068223566460D-01  4.5826566581314D-01
11  1.0000000000000D-01 -5.0256603693976D-01  5.0722458126046D-01
12  1.1000000000000D-01 -5.4169641626860D-01  5.5556573963745D-01
13  1.2000000000000D-01 -5.7788656722077D-01  6.0322802231229D-01
14  1.3000000000000D-01 -6.1097260168934D-01  6.5015059014663D-01
15  1.4000000000000D-01 -6.4081460587241D-01  6.9627294819447D-01
16  1.5000000000000D-01 -6.6729745960053D-01  7.4153501922477D-01
17  1.6000000000000D-01 -6.9033141162649D-01  7.8587722624254D-01
18  1.7000000000000D-01 -7.0985240605459D-01  8.2924058406677D-01
19  1.8000000000000D-01 -7.2582215769950D-01  8.7156679990488D-01
20  1.9000000000000D-01 -7.3822797680320D-01  9.1279838274309D-01
21  2.0000000000000D-01 -7.4708234617518D-01  9.5287876125272D-01
22  2.1000000000000D-01 -7.5242225642698D-01  9.9175240979356D-01
23  2.2000000000000D-01 -7.5430830752242D-01  1.0293649819797D+00
24  2.3000000000000D-01 -7.5282358733025D-01  1.0656634511614D+00
25  2.4000000000000D-01 -7.4807234022153D-01  1.1005962570687D+00
26  2.5000000000000D-01 -7.4017844097511D-01  1.1341134577634D+00
27  2.6000000000000D-01 -7.2928369131664D-01  1.1661668859499D+00
28  2.7000000000000D-01 -7.1554595829819D-01  1.1967103086136D+00
29  2.8000000000000D-01 -6.9913717540572D-01  1.2256995888758D+00
30  2.9000000000000D-01 -6.8024122874297D-01  1.2530928488916D+00
31  3.0000000000000D-01 -6.5905175186593D-01  1.2788506325608D+00
32  3.1000000000000D-01 -6.3576985381838D-01  1.3029360667781D+00
33  3.2000000000000D-01 -6.1060180563483D-01  1.3253150199192D+00
34  3.3000000000000D-01 -5.8375671102495D-01  1.3459562562394D+00
35  3.4000000000000D-01 -5.5544418712476D-01  1.3648315848561D+00
36  3.5000000000000D-01 -5.2587208109534D-01  1.3819160019944D+00
37  3.6000000000000D-01 -4.9524424796660D-01  1.3971878251941D+00
38  3.7000000000000D-01 -4.6375841446486D-01  1.4106288182107D+00
39  3.8000000000000D-01 -4.3160415263622D-01  1.4222243053892D+00
40  3.9000000000000D-01 -3.9896098588931D-01  1.4319632743477D+00
41  4.0000000000000D-01 -3.6599664864356D-01  1.4398384658793D+00
42  4.1000000000000D-01 -3.3286551909587D-01  1.4458464500609D+00
43  4.2000000000000D-01 -2.9970724272680D-01  1.4499876876541D+00
44  4.3000000000000D-01 -2.6664556207598D-01  1.4522665759817D+00
45  4.4000000000000D-01 -2.3378736604424D-01  1.4526914785781D+00
46  4.5000000000000D-01 -2.0122196955527D-01  1.4512747380309D+00
47  4.6000000000000D-01 -1.6902063185063D-01  1.4480326715568D+00
48  4.7000000000000D-01 -1.3723631903130D-01  1.4429855489889D+00
49  4.8000000000000D-01 -1.0590371371990D-01  1.4361575529864D+00
50  4.9000000000000D-01 -7.5039471931978D-02  1.4275767214218D+00
51  5.0000000000000D-01 -4.4642724439972D-02  1.4172748720384D+00
52  5.1000000000000D-01 -1.4695817119742D-02  1.4052875096162D+00
53  5.2000000000000D-01  1.4834717981379D-02  1.3916537160241D+00
54  5.3000000000000D-01  4.3996971797390D-02  1.3764160236768D+00
55  5.4000000000000D-01  7.2852261140318D-02  1.3596202730494D+00
56  5.5000000000000D-01  1.0147354131361D-01  1.3413154550332D+00
57  5.6000000000000D-01  1.2994364671337D-01  1.3215535390437D+00
58  5.7000000000000D-01  1.5835337979794D-01  1.3003892879036D+00
59  5.8000000000000D-01  1.8679947071794D-01  1.2778800606374D+00
60  5.9000000000000D-01  2.1538243157330D-01  1.2540856044104D+00
61  6.0000000000000D-01  2.4420433069827D-01  1.2290678369325D+00
62  6.1000000000000D-01  2.7336651353605D-01  1.2028906207262D+00
63  6.2000000000000D-01  3.0296729755122D-01  1.1756195307197D+00
64  6.3000000000000D-01  3.3309966921699D-01  1.1473216166793D+00
65  6.4000000000000D-01  3.6384901140377D-01  1.1180651620318D+00
66  6.5000000000000D-01  3.9529088947453D-01  1.0879194406512D+00
67  6.6000000000000D-01  4.2748892406497D-01  1.0569544731945D+00
68  6.7000000000000D-01  4.6049277788294D-01  1.0252407845647D+00
69  6.8000000000000D-01  4.9433628291360D-01  9.9284916406088D-01
70  6.9000000000000D-01  5.2903573317362D-01  9.5985042974174D-01
71  7.0000000000000D-01  5.6458836661756D-01  9.2631519848033D-01
72  7.1000000000000D-01  6.0097105798732D-01  8.9231366312781D-01
73  7.2000000000000D-01  6.3813924232477D-01  8.5791537812951D-01
74  7.3000000000000D-01  6.7602608655051D-01  8.2318905485055D-01
75  7.4000000000000D-01  7.1454192399311D-01  7.8820236777086D-01
76  7.5000000000000D-01  7.5357396401193D-01  7.5302177260125D-01
77  7.6000000000000D-01  7.9298628597888D-01  7.1771233725508D-01
78  7.7000000000000D-01  8.3262012385024D-01  6.8233758648417D-01
79  7.8000000000000D-01  8.7229444442634D-01  6.4695936085557D-01
80  7.9000000000000D-01  9.1180681918538D-01  6.1163769060716D-01
81  8.0000000000000D-01  9.5093458632767D-01  5.7643068477787D-01
82  8.1000000000000D-01  9.8943629640548D-01  5.4139443586284D-01
83  8.2000000000000D-01  1.0270534316846D+00  5.0658294009734D-01
84  8.3000000000000D-01  1.0635123862150D+00  4.7204803332655D-01
85  8.4000000000000D-01  1.0985266905085D+00  4.3783934227329D-01
86  8.5000000000000D-01  1.1317994617872D+00  4.0400425087403D-01
87  8.6000000000000D-01  1.1630260579777D+00  3.7058788121571D-01
88  8.7000000000000D-01  1.1918969110476D+00  3.3763308847483D-01
89  8.8000000000000D-01  1.2181005129122D+00  3.0518046913565D-01
90  8.9000000000000D-01  1.2413265250345D+00  2.7326838164876D-01
91  9.0000000000000D-01  1.2612689810028D+00  2.4193297858506D-01
92  9.1000000000000D-01  1.2776295498446D+00  2.1120824924545D-01
93  9.2000000000000D-01  1.2901208266130D+00  1.8112607160269D-01
94  9.3000000000000D-01  1.2984696159107D+00  1.5171627238127D-01
95  9.4000000000000D-01  1.3024201734858D+00  1.2300669402404D-01
96  9.5000000000000D-01  1.3017373708687D+00  9.5023267250880D-02
97  9.6000000000000D-01  1.2962097482134D+00  6.7790087885876D-02
98  9.7000000000000D-01  1.2856524210771D+00  4.1329496615377D-02
99  9.8000000000000D-01  1.2699098078013D+00  1.5662160340258D-02
100  9.9000000000000D-01  1.2488581454461D+00 -9.1928461989495D-03
101  1.0000000000000D+00  1.2224077639231D+00 -3.3217959813609D-02
102  1.0100000000000D+00  1.1905050898614D+00 -5.6397050522350D-02
103  1.0200000000000D+00  1.1531343541513D+00 -7.8715346656356D-02
104  1.0300000000000D+00  1.1103189796773D+00 -1.0015936452940D-01
105  1.0400000000000D+00  1.0621226286476D+00 -1.2071684370298D-01
106  1.0500000000000D+00  1.0086498920485D+00 -1.4037668878158D-01
107  1.0600000000000D+00  9.5004660730380D-01 -1.5912891855991D-01
108  1.0700000000000D+00  8.8649979334088D-01 -1.7696462324272D-01
109  1.0800000000000D+00  8.1823719651710D-01 -1.9387593031546D-01
110  1.0900000000000D+00  7.4552644433486D-01 -2.0985597952488D-01
111  1.1000000000000D+00  6.6867380793918D-01 -2.2489890728711D-01
112  1.1100000000000D+00  5.8802257842119D-01 -2.3899984069772D-01
113  1.1200000000000D+00  5.0395106546669D-01 -2.5215490119200D-01
114  1.1300000000000D+00  4.1687023153339D-01 -2.6436121773378D-01
115  1.1400000000000D+00  3.2722097800852D-01 -2.7561694928939D-01
116  1.1500000000000D+00  2.3547110397396D-01 -2.8592131618593D-01
117  1.1600000000000D+00  1.4211196093640D-01 -2.9527463984951D-01
118  1.1700000000000D+00  4.7654831418404D-02 -3.0367839024284D-01
119  1.1800000000000D+00 -4.7372938331419D-02 -3.1113524022732D-01
120  1.1900000000000D+00 -1.4243201831800D-01 -3.1764912595684D-01
121  1.2000000000000D+00 -2.3697535171049D-01 -3.2322531230649D-01
122  1.2100000000000D+00 -3.3045255030873D-01 -3.2787046222796D-01
123  1.2200000000000D+00 -4.2231438868890D-01 -3.3159270885396D-01
124  1.2300000000000D+00 -5.1201735596687D-01 -3.3440172912460D-01
125  1.2400000000000D+00 -5.9902822208816D-01 -3.3630881760831D-01
126  1.2500000000000D+00 -6.8282857582757D-01 -3.3732695918834D-01
127  1.2600000000000D+00 -7.6291929099390D-01 -3.3747089925190D-01
128  1.2700000000000D+00 -8.3882487725731D-01 -3.3675720999121D-01
129  1.2800000000000D+00 -9.1009767357075D-01 -3.3520435146683D-01
130  1.2900000000000D+00 -9.7632184201945D-01 -3.3283272607386D-01
131  1.3000000000000D+00 -1.0371171217910D+00 -3.2966472509325D-01
132  1.3100000000000D+00 -1.0921423064105D+00 -3.2572476612061D-01
133  1.3200000000000D+00 -1.1410984063962D+00 -3.2103932012962D-01
134  1.3300000000000D+00 -1.1837314647297D+00 -3.1563692708791D-01
135  1.3400000000000D+00 -1.2198349971894D+00 -3.0954819920295D-01
136  1.3500000000000D+00 -1.2492520258691D+00 -3.0280581074542D-01
137  1.3600000000000D+00 -1.2718766872413D+00 -2.9544447383325D-01
138  1.3700000000000D+00 -1.2876553943869D+00 -2.8750089950779D-01
139  1.3800000000000D+00 -1.2965875348266D+00 -2.7901374348681D-01
140  1.3900000000000D+00 -1.2987256997411D+00 -2.7002353648009D-01
141  1.4000000000000D+00 -1.2941754316943D+00 -2.6057259865146D-01
142  1.4100000000000D+00 -1.2830944923607D+00 -2.5070493831045D-01
143  1.4200000000000D+00 -1.2656916559002D+00 -2.4046613506953D-01
144  1.4300000000000D+00 -1.2422250271729D+00 -2.2990320746849D-01
145  1.4400000000000D+00 -1.2129999084151D+00 -2.1906446593933D-01
146  1.4500000000000D+00 -1.1783662207026D+00 -2.0799935136819D-01
147  1.4600000000000D+00 -1.1387155076887D+00 -1.9675826026586D-01
148  1.4700000000000D+00 -1.0944775468321D+00 -1.8539235748166D-01
149  1.4800000000000D+00 -1.0461165914987D+00 -1.7395337732471D-01
150  1.4900000000000D+00 -9.9412728836678D-01 -1.6249341472147D-01
151  1.5000000000000D+00 -9.3903029296802D-01 -1.5106470725367D-01
152  1.5100000000000D+00 -8.8136763654605D-01 -1.3971941002363D-01
153  1.5200000000000D+00 -8.2169787661976D-01 -1.2850936453826D-01
154  1.5300000000000D+00 -7.6059108255795D-01 -1.1748586349149D-01
155  1.5400000000000D+00 -6.9862370004963D-01 -1.0669941305532D-01
156  1.5500000000000D+00 -6.3637334390995D-01 -9.6199494492043D-02
157  1.5600000000000D+00 -5.7441356839876D-01 -8.6034326890929D-02
158  1.5700000000000D+00 -5.1330866628518D-01 -7.6250632908633D-02
159  1.5800000000000D+00 -4.5360854345944D-01 -6.6893409228474D-02
160  1.5900000000000D+00 -3.9584372526786D-01 -5.8005703800337D-02
161  1.6000000000000D+00 -3.4052053414747D-01 -4.9628401309570D-02
162  1.6100000000000D+00 -2.8811649775941D-01 -4.1800019048493D-02
163  1.6200000000000D+00 -2.3907602028011D-01 -3.4556514382890D-02
164  1.6300000000000D+00 -1.9380637415853D-01 -2.7931105917563D-02
165  1.6400000000000D+00 -1.5267403935124D-01 -2.1954109343829D-02
166  1.6500000000000D+00 -1.1600144105000D-01 -1.6652789840371D-02
167  1.6600000000000D+00 -8.4078048873063D-02 -1.2053224056955D-02
168  1.6700000000000D+00 -5.7108810613310D-02 -8.1731597683707D-03
169  1.6800000000000D+00 -3.5162597384491D-02 -5.0152286431704D-03
170  1.6900000000000D+00 -1.8531475251588D-02 -2.6169953766921D-03
171  1.7000000000000D+00 -7.6750564099303D-03 -1.0416888251601D-03
172  1.7100000000000D+00 -2.0654010565523D-03 -2.2322393686126D-04
173  1.7200000000000D+00 -1.0243808180645D-05  5.9178011655022D-05
174  1.7300000000000D+00  2.1427377217407D-04  5.4066017019511D-05
175  1.7400000000000D+00 -6.3429509842296D-05 -1.4034122244770D-05
176  1.7500000000000D+00 -1.0079401220470D-04 -2.0933169942750D-05
177  1.7600000000000D+00  7.4125147082764D-06  1.8137507280149D-06
178  1.7700000000000D+00  1.7862869611012D-05  4.1808722603035D-06
179  1.7800000000000D+00  3.3685501722879D-07  1.8670330262628D-09
180  1.7900000000000D+00  1.4325011724944D-06  7.9396976812451D-09
181  1.8000000000000D+00  4.7641116610963D-10  2.6405288201569D-12
182  1.8100000000000D+00  0.0000000000000D+00  0.0000000000000D+00
183  1.8200000000000D+00  0.0000000000000D+00  0.0000000000000D+00
184  1.8300000000000D+00  0.0000000000000D+00  0.0000000000000D+00
185  1.8400000000000D+00  0.0000000000000D+00  0.0000000000000D+00
186  1.8500000000000D+00  0.0000000000000D+00  0.0000000000000D+00
187  1.8600000000000D+00  0.0000000000000D+00  0.0000000000000D+00
188  1.8700000000000D+00  0.0000000000000D+00  0.0000000000000D+00
189  1.8800000000000D+00  0.0000000000000D+00  0.0000000000000D+00
190  1.8900000000000D+00  0.0000000000000D+00  0.0000000000000D+00
191  1.9000000000000D+00  0.0000000000000D+00  0.0000000000000D+00
192  1.9100000000000D+00  0.0000000000000D+00  0.0000000000000D+00
193  1.9200000000000D+00  0.0000000000000D+00  0.0000000000000D+00
194  1.9300000000000D+00  0.0000000000000D+00  0.0000000000000D+00
195  1.9400000000000D+00  0.0000000000000D+00  0.0000000000000D+00
196  1.9500000000000D+00  0.0000000000000D+00  0.0000000000000D+00
197  1.9600000000000D+00  0.0000000000000D+00  0.0000000000000D+00
198  1.9700000000000D+00  0.0000000000000D+00  0.0000000000000D+00
199  1.9800000000000D+00  0.0000000000000D+00  0.0000000000000D+00
200  1.9900000000000D+00  0.0000000000000D+00  0.0000000000000D+00
201  2.0000000000000D+00  0.0000000000000D+00  0.0000000000000D+00
202  2.0100000000000D+00  0.0000000000000D+00  0.0000000000000D+00
203  2.0200000000000D+00  0.0000000000000D+00  0.0000000000000D+00
204  2.0300000000000D+00  0.0000000000000D+00  0.0000000000000D+00
205  2.0400000000000D+00  0.0000000000000D+00  0.0000000000000D+00
206  2.0500000000000D+00  0.0000000000000D+00  0.0000000000000D+00
207  2.0600000000000D+00  0.0000000000000D+00  0.0000000000000D+00
208  2.0700000000000D+00  0.0000000000000D+00  0.0000000000000D+00
209  2.0800000000000D+00  0.0000000000000D+00  0.0000000000000D+00
210  2.0900000000000D+00  0.0000000000000D+00  0.0000000000000D+00
211  2.1000000000000D+00  0.0000000000000D+00  0.0000000000000D+00
212  2.1100000000000D+00  0.0000000000000D+00  0.0000000000000D+00
213  2.1200000000000D+00  0.0000000000000D+00  0.0000000000000D+00
214  2.1300000000000D+00  0.0000000000000D+00  0.0000000000000D+00
215  2.1400000000000D+00  0.0000000000000D+00  0.0000000000000D+00
216  2.1500000000000D+00  0.0000000000000D+00  0.0000000000000D+00
217  2.1600000000000D+00  0.0000000000000D+00  0.0000000000000D+00
218  2.1700000000000D+00  0.0000000000000D+00  0.0000000000000D+00
219  2.1800000000000D+00  0.0000000000000D+00  0.0000000000000D+00
220  2.1900000000000D+00  0.0000000000000D+00  0.0000000000000D+00
221  2.2000000000000D+00  0.0000000000000D+00  0.0000000000000D+00
222  2.2100000000000D+00  0.0000000000000D+00  0.0000000000000D+00
223  2.2200000000000D+00  0.0000000000000D+00  0.0000000000000D+00
224  2.2300000000000D+00  0.0000000000000D+00  0.0000000000000D+00
225  2.2400000000000D+00  0.0000000000000D+00  0.0000000000000D+00
226  2.2500000000000D+00  0.0000000000000D+00  0.0000000000000D+00
227  2.2600000000000D+00  0.0000000000000D+00  0.0000000000000D+00
228  2.2700000000000D+00  0.0000000000000D+00  0.0000000000000D+00
229  2.2800000000000D+00  0.0000000000000D+00  0.0000000000000D+00
230  2.2900000000000D+00  0.0000000000000D+00  0.0000000000000D+00
231  2.3000000000000D+00  0.0000000000000D+00  0.0000000000000D+00
232  2.3100000000000D+00  0.0000000000000D+00  0.0000000000000D+00
233  2.3200000000000D+00  0.0000000000000D+00  0.0000000000000D+00
234  2.3300000000000D+00  0.0000000000000D+00  0.0000000000000D+00
235  2.3400000000000D+00  0.0000000000000D+00  0.0000000000000D+00
236  2.3500000000000D+00  0.0000000000000D+00  0.0000000000000D+00
237  2.3600000000000D+00  0.0000000000000D+00  0.0000000000000D+00
238  2.3700000000000D+00  0.0000000000000D+00  0.0000000000000D+00
239  2.3800000000000D+00  0.0000000000000D+00  0.0000000000000D+00
240  2.3900000000000D+00  0.0000000000000D+00  0.0000000000000D+00
241  2.4000000000000D+00  0.0000000000000D+00  0.0000000000000D+00
242  2.4100000000000D+00  0.0000000000000D+00  0.0000000000000D+00
243  2.4200000000000D+00  0.0000000000000D+00  0.0000000000000D+00
244  2.4300000000000D+00  0.0000000000000D+00  0.0000000000000D+00
245  2.4400000000000D+00  0.0000000000000D+00  0.0000000000000D+00
246  2.4500000000000D+00  0.0000000000000D+00  0.0000000000000D+00
247  2.4600000000000D+00  0.0000000000000D+00  0.0000000000000D+00
248  2.4700000000000D+00  0.0000000000000D+00  0.0000000000000D+00
249  2.4800000000000D+00  0.0000000000000D+00  0.0000000000000D+00
250  2.4900000000000D+00  0.0000000000000D+00  0.0000000000000D+00
251  2.5000000000000D+00  0.0000000000000D+00  0.0000000000000D+00
252  2.5100000000000D+00  0.0000000000000D+00  0.0000000000000D+00
253  2.5200000000000D+00  0.0000000000000D+00  0.0000000000000D+00
254  2.5300000000000D+00  0.0000000000000D+00  0.0000000000000D+00
255  2.5400000000000D+00  0.0000000000000D+00  0.0000000000000D+00
256  2.5500000000000D+00  0.0000000000000D+00  0.0000000000000D+00
257  2.5600000000000D+00  0.0000000000000D+00  0.0000000000000D+00
258  2.5700000000000D+00  0.0000000000000D+00  0.0000000000000D+00
259  2.5800000000000D+00  0.0000000000000D+00  0.0000000000000D+00
260  2.5900000000000D+00  0.0000000000000D+00  0.0000000000000D+00
261  2.6000000000000D+00  0.0000000000000D+00  0.0000000000000D+00
262  2.6100000000000D+00  0.0000000000000D+00  0.0000000000000D+00
263  2.6200000000000D+00  0.0000000000000D+00  0.0000000000000D+00
264  2.6300000000000D+00  0.0000000000000D+00  0.0000000000000D+00
265  2.6400000000000D+00  0.0000000000000D+00  0.0000000000000D+00
266  2.6500000000000D+00  0.0000000000000D+00  0.0000000000000D+00
267  2.6600000000000D+00  0.0000000000000D+00  0.0000000000000D+00
268  2.6700000000000D+00  0.0000000000000D+00  0.0000000000000D+00
269  2.6800000000000D+00  0.0000000000000D+00  0.0000000000000D+00
270  2.6900000000000D+00  0.0000000000000D+00  0.0000000000000D+00
271  2.7000000000000D+00  0.0000000000000D+00  0.0000000000000D+00
272  2.7100000000000D+00  0.0000000000000D+00  0.0000000000000D+00
273  2.7200000000000D+00  0.0000000000000D+00  0.0000000000000D+00
274  2.7300000000000D+00  0.0000000000000D+00  0.0000000000000D+00
275  2.7400000000000D+00  0.0000000000000D+00  0.0000000000000D+00
276  2.7500000000000D+00  0.0000000000000D+00  0.0000000000000D+00
277  2.7600000000000D+00  0.0000000000000D+00  0.0000000000000D+00
278  2.7700000000000D+00  0.0000000000000D+00  0.0000000000000D+00
279  2.7800000000000D+00  0.0000000000000D+00  0.0000000000000D+00
280  2.7900000000000D+00  0.0000000000000D+00  0.0000000000000D+00
281  2.8000000000000D+00  0.0000000000000D+00  0.0000000000000D+00
282  2.8100000000000D+00  0.0000000000000D+00  0.0000000000000D+00
283  2.8200000000000D+00  0.0000000000000D+00  0.0000000000000D+00
284  2.8300000000000D+00  0.0000000000000D+00  0.0000000000000D+00
285  2.8400000000000D+00  0.0000000000000D+00  0.0000000000000D+00
286  2.8500000000000D+00  0.0000000000000D+00  0.0000000000000D+00
287  2.8600000000000D+00  0.0000000000000D+00  0.0000000000000D+00
288  2.8700000000000D+00  0.0000000000000D+00  0.0000000000000D+00
289  2.8800000000000D+00  0.0000000000000D+00  0.0000000000000D+00
290  2.8900000000000D+00  0.0000000000000D+00  0.0000000000000D+00
291  2.9000000000000D+00  0.0000000000000D+00  0.0000000000000D+00
292  2.9100000000000D+00  0.0000000000000D+00  0.0000000000000D+00
293  2.9200000000000D+00  0.0000000000000D+00  0.0000000000000D+00
294  2.9300000000000D+00  0.0000000000000D+00  0.0000000000000D+00
295  2.9400000000000D+00  0.0000000000000D+00  0.0000000000000D+00
296  2.9500000000000D+00  0.0000000000000D+00  0.0000000000000D+00
297  2.9600000000000D+00  0.0000000000000D+00  0.0000000000000D+00
298  2.9700000000000D+00  0.0000000000000D+00  0.0000000000000D+00
299  2.9800000000000D+00  0.0000000000000D+00  0.0000000000000D+00
300  2.9900000000000D+00  0.0000000000000D+00  0.0000000000000D+00
301  3.0000000000000D+00  0.0000000000000D+00  0.0000000000000D+00
302  3.0100000000000D+00  0.0000000000000D+00  0.0000000000000D+00
303  3.0200000000000D+00  0.0000000000000D+00  0.0000000000000D+00
304  3.0300000000000D+00  0.0000000000000D+00  0.0000000000000D+00
305  3.0400000000000D+00  0.0000000000000D+00  0.0000000000000D+00
306  3.0500000000000D+00  0.0000000000000D+00  0.0000000000000D+00
307  3.0600000000000D+00  0.0000000000000D+00  0.0000000000000D+00
308  3.0700000000000D+00  0.0000000000000D+00  0.0000000000000D+00
309  3.0800000000000D+00  0.0000000000000D+00  0.0000000000000D+00
310  3.0900000000000D+00  0.0000000000000D+00  0.0000000000000D+00
311  3.1000000000000D+00  0.0000000000000D+00  0.0000000000000D+00
312  3.1100000000000D+00  0.0000000000000D+00  0.0000000000000D+00
313  3.1200000000000D+00  0.0000000000000D+00  0.0000000000000D+00
314  3.1300000000000D+00  0.0000000000000D+00  0.0000000000000D+00
315  3.1400000000000D+00  0.0000000000000D+00  0.0000000000000D+00
316  3.1500000000000D+00  0.0000000000000D+00  0.0000000000000D+00
317  3.1600000000000D+00  0.0000000000000D+00  0.0000000000000D+00
318  3.1700000000000D+00  0.0000000000000D+00  0.0000000000000D+00
319  3.1800000000000D+00  0.0000000000000D+00  0.0000000000000D+00
320  3.1900000000000D+00  0.0000000000000D+00  0.0000000000000D+00
321  3.2000000000000D+00  0.0000000000000D+00  0.0000000000000D+00
322  3.2100000000000D+00  0.0000000000000D+00  0.0000000000000D+00
323  3.2200000000000D+00  0.0000000000000D+00  0.0000000000000D+00
324  3.2300000000000D+00  0.0000000000000D+00  0.0000000000000D+00
325  3.2400000000000D+00  0.0000000000000D+00  0.0000000000000D+00
326  3.2500000000000D+00  0.0000000000000D+00  0.0000000000000D+00
327  3.2600000000000D+00  0.0000000000000D+00  0.0000000000000D+00
328  3.2700000000000D+00  0.0000000000000D+00  0.0000000000000D+00
329  3.2800000000000D+00  0.0000000000000D+00  0.0000000000000D+00
330  3.2900000000000D+00  0.0000000000000D+00  0.0000000000000D+00
331  3.3000000000000D+00  0.0000000000000D+00  0.0000000000000D+00
332  3.3100000000000D+00  0.0000000000000D+00  0.0000000000000D+00
333  3.3200000000000D+00  0.0000000000000D+00  0.0000000000000D+00
334  3.3300000000000D+00  0.0000000000000D+00  0.0000000000000D+00
335  3.3400000000000D+00  0.0000000000000D+00  0.0000000000000D+00
336  3.3500000000000D+00  0.0000000000000D+00  0.0000000000000D+00
337  3.3600000000000D+00  0.0000000000000D+00  0.0000000000000D+00
338  3.3700000000000D+00  0.0000000000000D+00  0.0000000000000D+00
339  3.3800000000000D+00  0.0000000000000D+00  0.0000000000000D+00
340  3.3900000000000D+00  0.0000000000000D+00  0.0000000000000D+00
341  3.4000000000000D+00  0.0000000000000D+00  0.0000000000000D+00
342  3.4100000000000D+00  0.0000000000000D+00  0.0000000000000D+00
343  3.4200000000000D+00  0.0000000000000D+00  0.0000000000000D+00
344  3.4300000000000D+00  0.0000000000000D+00  0.0000000000000D+00
345  3.4400000000000D+00  0.0000000000000D+00  0.0000000000000D+00
346  3.4500000000000D+00  0.0000000000000D+00  0.0000000000000D+00
347  3.4600000000000D+00  0.0000000000000D+00  0.0000000000000D+00
348  3.4700000000000D+00  0.0000000000000D+00  0.0000000000000D+00
349  3.4800000000000D+00  0.0000000000000D+00  0.0000000000000D+00
350  3.4900000000000D+00  0.0000000000000D+00  0.0000000000000D+00
351  3.5000000000000D+00  0.0000000000000D+00  0.0000000000000D+00
352  3.5100000000000D+00  0.0000000000000D+00  0.0000000000000D+00
353  3.5200000000000D+00  0.0000000000000D+00  0.0000000000000D+00
354  3.5300000000000D+00  0.0000000000000D+00  0.0000000000000D+00
355  3.5400000000000D+00  0.0000000000000D+00  0.0000000000000D+00
356  3.5500000000000D+00  0.0000000000000D+00  0.0000000000000D+00
357  3.5600000000000D+00  0.0000000000000D+00  0.0000000000000D+00
358  3.5700000000000D+00  0.0000000000000D+00  0.0000000000000D+00
359  3.5800000000000D+00  0.0000000000000D+00  0.0000000000000D+00
360  3.5900000000000D+00  0.0000000000000D+00  0.0000000000000D+00
361  3.6000000000000D+00  0.0000000000000D+00  0.0000000000000D+00
362  3.6100000000000D+00  0.0000000000000D+00  0.0000000000000D+00
363  3.6200000000000D+00  0.0000000000000D+00  0.0000000000000D+00
364  3.6300000000000D+00  0.0000000000000D+00  0.0000000000000D+00
365  3.6400000000000D+00  0.0000000000000D+00  0.0000000000000D+00
366  3.6500000000000D+00  0.0000000000000D+00  0.0000000000000D+00
367  3.6600000000000D+00  0.0000000000000D+00  0.0000000000000D+00
368  3.6700000000000D+00  0.0000000000000D+00  0.0000000000000D+00
369  3.6800000000000D+00  0.0000000000000D+00  0.0000000000000D+00
370  3.6900000000000D+00  0.0000000000000D+00  0.0000000000000D+00
371  3.7000000000000D+00  0.0000000000000D+00  0.0000000000000D+00
372  3.7100000000000D+00  0.0000000000000D+00  0.0000000000000D+00
373  3.7200000000000D+00  0.0000000000000D+00  0.0000000000000D+00
374  3.7300000000000D+00  0.0000000000000D+00  0.0000000000000D+00
375  3.7400000000000D+00  0.0000000000000D+00  0.0000000000000D+00
376  3.7500000000000D+00  0.0000000000000D+00  0.0000000000000D+00
377  3.7600000000000D+00  0.0000000000000D+00  0.0000000000000D+00
378  3.7700000000000D+00  0.0000000000000D+00  0.0000000000000D+00
379  3.7800000000000D+00  0.0000000000000D+00  0.0000000000000D+00
380  3.7900000000000D+00  0.0000000000000D+00  0.0000000000000D+00
381  3.8000000000000D+00  0.0000000000000D+00  0.0000000000000D+00
382  3.8100000000000D+00  0.0000000000000D+00  0.0000000000000D+00
383  3.8200000000000D+00  0.0000000000000D+00  0.0000000000000D+00
384  3.8300000000000D+00  0.0000000000000D+00  0.0000000000000D+00
385  3.8400000000000D+00  0.0000000000000D+00  0.0000000000000D+00
386  3.8500000000000D+00  0.0000000000000D+00  0.0000000000000D+00
387  3.8600000000000D+00  0.0000000000000D+00  0.0000000000000D+00
388  3.8700000000000D+00  0.0000000000000D+00  0.0000000000000D+00
389  3.8800000000000D+00  0.0000000000000D+00  0.0000000000000D+00
390  3.8900000000000D+00  0.0000000000000D+00  0.0000000000000D+00
391  3.9000000000000D+00  0.0000000000000D+00  0.0000000000000D+00
392  3.9100000000000D+00  0.0000000000000D+00  0.0000000000000D+00
393  3.9200000000000D+00  0.0000000000000D+00  0.0000000000000D+00
394  3.9300000000000D+00  0.0000000000000D+00  0.0000000000000D+00
395  3.9400000000000D+00  0.0000000000000D+00  0.0000000000000D+00
396  3.9500000000000D+00  0.0000000000000D+00  0.0000000000000D+00
397  3.9600000000000D+00  0.0000000000000D+00  0.0000000000000D+00
398  3.9700000000000D+00  0.0000000000000D+00  0.0000000000000D+00
399  3.9800000000000D+00  0.0000000000000D+00  0.0000000000000D+00
400  3.9900000000000D+00  0.0000000000000D+00  0.0000000000000D+00
401  4.0000000000000D+00  0.0000000000000D+00  0.0000000000000D+00
402  4.0100000000000D+00  0.0000000000000D+00  0.0000000000000D+00
403  4.0200000000000D+00  0.0000000000000D+00  0.0000000000000D+00
404  4.0300000000000D+00  0.0000000000000D+00  0.0000000000000D+00
405  4.0400000000000D+00  0.0000000000000D+00  0.0000000000000D+00
406  4.0500000000000D+00  0.0000000000000D+00  0.0000000000000D+00
407  4.0600000000000D+00  0.0000000000000D+00  0.0000000000000D+00
408  4.0700000000000D+00  0.0000000000000D+00  0.0000000000000D+00
409  4.0800000000000D+00  0.0000000000000D+00  0.0000000000000D+00
410  4.0900000000000D+00  0.0000000000000D+00  0.0000000000000D+00
411  4.1000000000000D+00  0.0000000000000D+00  0.0000000000000D+00
412  4.1100000000000D+00  0.0000000000000D+00  0.0000000000000D+00
413  4.1200000000000D+00  0.0000000000000D+00  0.0000000000000D+00
414  4.1300000000000D+00  0.0000000000000D+00  0.0000000000000D+00
415  4.1400000000000D+00  0.0000000000000D+00  0.0000000000000D+00
416  4.1500000000000D+00  0.0000000000000D+00  0.0000000000000D+00
417  4.1600000000000D+00  0.0000000000000D+00  0.0000000000000D+00
418  4.1700000000000D+00  0.0000000000000D+00  0.0000000000000D+00
419  4.1800000000000D+00  0.0000000000000D+00  0.0000000000000D+00
420  4.1900000000000D+00  0.0000000000000D+00  0.0000000000000D+00
421  4.2000000000000D+00  0.0000000000000D+00  0.0000000000000D+00
422  4.2100000000000D+00  0.0000000000000D+00  0.0000000000000D+00
423  4.2200000000000D+00  0.0000000000000D+00  0.0000000000000D+00
424  4.2300000000000D+00  0.0000000000000D+00  0.0000000000000D+00
425  4.2400000000000D+00  0.0000000000000D+00  0.0000000000000D+00
426  4.2500000000000D+00  0.0000000000000D+00  0.0000000000000D+00
427  4.2600000000000D+00  0.0000000000000D+00  0.0000000000000D+00
428  4.2700000000000D+00  0.0000000000000D+00  0.0000000000000D+00
429  4.2800000000000D+00  0.0000000000000D+00  0.0000000000000D+00
430  4.2900000000000D+00  0.0000000000000D+00  0.0000000000000D+00
431  4.3000000000000D+00  0.0000000000000D+00  0.0000000000000D+00
432  4.3100000000000D+00  0.0000000000000D+00  0.0000000000000D+00
433  4.3200000000000D+00  0.0000000000000D+00  0.0000000000000D+00
434  4.3300000000000D+00  0.0000000000000D+00  0.0000000000000D+00
435  4.3400000000000D+00  0.0000000000000D+00  0.0000000000000D+00
436  4.3500000000000D+00  0.0000000000000D+00  0.0000000000000D+00
437  4.3600000000000D+00  0.0000000000000D+00  0.0000000000000D+00
438  4.3700000000000D+00  0.0000000000000D+00  0.0000000000000D+00
439  4.3800000000000D+00  0.0000000000000D+00  0.0000000000000D+00
440  4.3900000000000D+00  0.0000000000000D+00  0.0000000000000D+00
441  4.4000000000000D+00  0.0000000000000D+00  0.0000000000000D+00
442  4.4100000000000D+00  0.0000000000000D+00  0.0000000000000D+00
443  4.4200000000000D+00  0.0000000000000D+00  0.0000000000000D+00