Hg    ONCVPSP-3.3.0  r_core=   1.60079   1.60079   1.45509   1.60079
80.0000     20.0000      180430    zatom,zion,pspd
8 -116133   3     4   600     0    pspcod,pspxc,lmax,lloc,mmax,r2well
5.99000000  5.00000000  0.00000000    rchrg fchrg qchrg
2     4     4     2    nproj
3     1           extension_switch
4     4     2    nprojso
0                         2.0391084213760D+00  1.4963097878803D+01
1  0.0000000000000D+00  5.0605164503281D-10 -2.8005564534084D-10
2  1.0000000000000D-02 -8.3415037419043D-03  7.6835803902338D-02
3  2.0000000000000D-02 -1.6539547189396D-02  1.5346817021773D-01
4  3.0000000000000D-02 -2.4451774829134D-02  2.2969451146586D-01
5  4.0000000000000D-02 -3.1938029464445D-02  3.0531393380472D-01
6  5.0000000000000D-02 -3.8861423390199D-02  3.8012806748454D-01
7  6.0000000000000D-02 -4.5089376350609D-02  4.5394187786446D-01
8  7.0000000000000D-02 -5.0494609808345D-02  5.2656445084516D-01
9  8.0000000000000D-02 -5.4956087559352D-02  5.9780974685106D-01
10  9.0000000000000D-02 -5.8359893349406D-02  6.6749731783938D-01
11  1.0000000000000D-01 -6.0600036878496D-02  7.3545298221746D-01
12  1.1000000000000D-01 -6.1579180409203D-02  8.0150945300885D-01
13  1.2000000000000D-01 -6.1209279115843D-02  8.6550691511807D-01
14  1.3000000000000D-01 -5.9412129311620D-02  9.2729354809717D-01
15  1.4000000000000D-01 -5.6119819759717D-02  9.8672599140817D-01
16  1.5000000000000D-01 -5.1275082399039D-02  1.0436697497973D+00
17  1.6000000000000D-01 -4.4831539982539D-02  1.0979995370421D+00
18  1.7000000000000D-01 -3.6753849322856D-02  1.1495995569942D+00
19  1.8000000000000D-01 -2.7017740051406D-02  1.1983637215084D+00
20  1.9000000000000D-01 -1.5609950009699D-02  1.2441958055212D+00
21  2.0000000000000D-01 -2.5280595903280D-03  1.2870095402002D+00
22  2.1000000000000D-01  1.2219771484018D-02  1.3267286457349D+00
23  2.2000000000000D-01  2.8615160326160D-02  1.3632868059615D+00
24  2.3000000000000D-01  4.6629944304397D-02  1.3966275876054D+00
25  2.4000000000000D-01  6.6226705021796D-02  1.4267043074797D+00
26  2.5000000000000D-01  8.7359365237100D-02  1.4534798514875D+00
27  2.6000000000000D-01  1.0997385027888D-01  1.4769264497313D+00
28  2.7000000000000D-01  1.3400880477769D-01  1.4970254124364D+00
29  2.8000000000000D-01  1.5939635492674D-01  1.5137668317298D+00
30  2.9000000000000D-01  1.8606290598839D-01  1.5271492545916D+00
31  3.0000000000000D-01  2.1392996439815D-01  1.5371793324960D+00
32  3.1000000000000D-01  2.4291497358520D-01  1.5438714533857D+00
33  3.2000000000000D-01  2.7293215253338D-01  1.5472473616823D+00
34  3.3000000000000D-01  3.0389332614946D-01  1.5473357720074D+00
35  3.4000000000000D-01  3.3570873668902D-01  1.5441719821946D+00
36  3.5000000000000D-01  3.6828782581166D-01  1.5377974909967D+00
37  3.6000000000000D-01  4.0153997729486D-01  1.5282596256481D+00
38  3.7000000000000D-01  4.3537521102374D-01  1.5156111841194D+00
39  3.8000000000000D-01  4.6970481958807D-01  1.4999100965224D+00
40  3.9000000000000D-01  5.0444193964833D-01  1.4812191096686D+00
41  4.0000000000000D-01  5.3950205117130D-01  1.4596054982860D+00
42  4.1000000000000D-01  5.7480339867211D-01  1.4351408058362D+00
43  4.2000000000000D-01  6.1026732972036D-01  1.4079006172770D+00
44  4.3000000000000D-01  6.4581854716147D-01  1.3779643654762D+00
45  4.4000000000000D-01  6.8138527275470D-01  1.3454151723150D+00
46  4.5000000000000D-01  7.1689932122227D-01  1.3103397248356D+00
47  4.6000000000000D-01  7.5229608502273D-01  1.2728281860864D+00
48  4.7000000000000D-01  7.8751443149074D-01  1.2329741396227D+00
49  4.8000000000000D-01  8.2249651530568D-01  1.1908745659253D+00
50  4.9000000000000D-01  8.5718751054842D-01  1.1466298483284D+00
51  5.0000000000000D-01  8.9153526786033D-01  1.1003438054001D+00
52  5.1000000000000D-01  9.2548990341352D-01  1.0521237461053D+00
53  5.2000000000000D-01  9.5900332752306D-01  1.0020805435184D+00
54  5.3000000000000D-01  9.9202872176098D-01  9.5032872233784D-01
55  5.4000000000000D-01  1.0245199743557D+00  8.9698655500714D-01
56  5.5000000000000D-01  1.0564310844643D+00  8.4217616086427D-01
57  5.6000000000000D-01  1.0877155465778D+00  7.8602360243795D-01
58  5.7000000000000D-01  1.1183257268460D+00  7.2865897278678D-01
59  5.8000000000000D-01  1.1482122434839D+00  6.7021646764204D-01
60  5.9000000000000D-01  1.1773233636379D+00  6.1083443606969D-01
61  6.0000000000000D-01  1.2056044291342D+00  5.5065540341809D-01
62  6.1000000000000D-01  1.2329973234105D+00  4.8982606046101D-01
63  6.2000000000000D-01  1.2594399916369D+00  4.2849721288750D-01
64  6.3000000000000D-01  1.2848660255618D+00  3.6682368562594D-01
65  6.4000000000000D-01  1.3092043239851D+00  3.0496417691719D-01
66  6.5000000000000D-01  1.3323788389546D+00  2.4308105757317D-01
67  6.6000000000000D-01  1.3543084168259D+00  1.8134011145894D-01
68  6.7000000000000D-01  1.3749067422144D+00  1.1991021392088D-01
69  6.8000000000000D-01  1.3940823916258D+00  5.8962945640562D-02
70  6.9000000000000D-01  1.4117390021738D+00 -1.3278597843079D-03
71  7.0000000000000D-01  1.4277755593272D+00 -6.0786635357687D-02
72  7.1000000000000D-01  1.4420868060416D+00 -1.1923666719981D-01
73  7.2000000000000D-01  1.4545637739962D+00 -1.7650074700306D-01
74  7.3000000000000D-01  1.4650944359483D+00 -2.3240188839223D-01
75  7.4000000000000D-01  1.4735644764859D+00 -2.8676410415940D-01
76  7.5000000000000D-01  1.4798581767140D+00 -3.3941324035734D-01
77  7.6000000000000D-01  1.4838594066666D+00 -3.9017786225421D-01
78  7.7000000000000D-01  1.4854527175352D+00 -4.3889018620748D-01
79  7.8000000000000D-01  1.4845245241553D+00 -4.8538705060594D-01
80  7.9000000000000D-01  1.4809643666169D+00 -5.2951091817306D-01
81  8.0000000000000D-01  1.4746662383929D+00 -5.7111090113606D-01
82  8.1000000000000D-01  1.4655299670277D+00 -6.1004380005277D-01
83  8.2000000000000D-01  1.4534626322120D+00 -6.4617514646528D-01
84  8.3000000000000D-01  1.4383800050210D+00 -6.7938023902563D-01
85  8.4000000000000D-01  1.4202079912133D+00 -7.0954516232316D-01
86  8.5000000000000D-01  1.3988840608022D+00 -7.3656777734501D-01
87  8.6000000000000D-01  1.3743586456324D+00 -7.6035867232679D-01
88  8.7000000000000D-01  1.3465964864282D+00 -7.8084206270576D-01
89  8.8000000000000D-01  1.3155779107365D+00 -7.9795662897774D-01
90  8.9000000000000D-01  1.2813000233804D+00 -8.1165628148458D-01
91  9.0000000000000D-01  1.2437777914541D+00 -8.2191084152184D-01
92  9.1000000000000D-01  1.2030450065489D+00 -8.2870662865575D-01
93  9.2000000000000D-01  1.1591551077787D+00 -8.3204694477252D-01
94  9.3000000000000D-01  1.1121818502843D+00 -8.3195244614661D-01
95  9.4000000000000D-01  1.0622198052166D+00 -8.2846139570326D-01
96  9.5000000000000D-01  1.0093846787273D+00 -8.2162978865513D-01
97  9.6000000000000D-01  9.5381343921230D-01 -8.1153134580593D-01
98  9.7000000000000D-01  8.9566424394157D-01 -7.9825737002345D-01
99  9.8000000000000D-01  8.3511615824666D-01 -7.8191646267448D-01
100  9.9000000000000D-01  7.7236866265824D-01 -7.6263409820991D-01
101  1.0000000000000D+00  7.0764094555559D-01 -7.4055205644128D-01
102  1.0100000000000D+00  6.4117098139865D-01 -7.1582771360392D-01
103  1.0200000000000D+00  5.7321439693595D-01 -6.8863319473123D-01
104  1.0300000000000D+00  5.0404313026684D-01 -6.5915439138592D-01
105  1.0400000000000D+00  4.3394389006557D-01 -6.2758985027321D-01
106  1.0500000000000D+00  3.6321642476875D-01 -5.9414953977057D-01
107  1.0600000000000D+00  2.9217161369663D-01 -5.5905350271560D-01
108  1.0700000000000D+00  2.2112939456412D-01 -5.2253040528330D-01
109  1.0800000000000D+00  1.5041654385565D-01 -4.8481599298484D-01
110  1.0900000000000D+00  8.0364328548814D-02 -4.4615146601029D-01
111  1.1000000000000D+00  1.1306049591695D-02 -4.0678178726374D-01
112  1.1100000000000D+00 -5.6425501084725D-02 -3.6695393724189D-01
113  1.1200000000000D+00 -1.2250064648515D-01 -3.2691513091529D-01
114  1.1300000000000D+00 -1.8659546895784D-01 -2.8691101228074D-01
115  1.1400000000000D+00 -2.4839446764758D-01 -2.4718384280203D-01
116  1.1500000000000D+00 -3.0759320299865D-01 -2.0797070024827D-01
117  1.1600000000000D+00 -3.6390090183050D-01 -1.6950170466222D-01
118  1.1700000000000D+00 -4.1704299655204D-01 -1.3199828811437D-01
119  1.1800000000000D+00 -4.6676357250280D-01 -9.5671524574203D-02
120  1.1900000000000D+00 -5.1282769751138D-01 -6.0720536134114D-02
121  1.2000000000000D+00 -5.5502360905758D-01 -2.7330990944851D-02
122  1.2100000000000D+00 -5.9316473552907D-01  4.3262924885696D-03
123  1.2200000000000D+00 -6.2709152925825D-01  3.4096620778279D-02
124  1.2300000000000D+00 -6.5667309068177D-01  6.1842568085238D-02
125  1.2400000000000D+00 -6.8180856549682D-01  8.7444974299688D-02
126  1.2500000000000D+00 -7.0242829857224D-01  1.1080378893971D-01
127  1.2600000000000D+00 -7.1849472987581D-01  1.3183875168868D-01
128  1.2700000000000D+00 -7.3000302211491D-01  1.5048990325381D-01
129  1.2800000000000D+00 -7.3698141161741D-01  1.6671792135678D-01
130  1.2900000000000D+00 -7.3949127536080D-01  1.8050427753483D-01
131  1.3000000000000D+00 -7.3762691329209D-01  1.9185121427922D-01
132  1.3100000000000D+00 -7.3151504588019D-01  2.0078154252410D-01
133  1.3200000000000D+00 -7.2131402890620D-01  2.0733826077969D-01
134  1.3300000000000D+00 -7.0721279452799D-01  2.1158400151849D-01
135  1.3400000000000D+00 -6.8942952654660D-01  2.1360030973976D-01
136  1.3500000000000D+00 -6.6821008205910D-01  2.1348676125446D-01
137  1.3600000000000D+00 -6.4382617731429D-01  2.1135993167247D-01
138  1.3700000000000D+00 -6.1657335266979D-01  2.0735222529222D-01
139  1.3800000000000D+00 -5.8676873942709D-01  2.0161057790858D-01
140  1.3900000000000D+00 -5.5474865165906D-01  1.9429504775600D-01
141  1.4000000000000D+00 -5.2086602562533D-01  1.8557730849102D-01
142  1.4100000000000D+00 -4.8548774640023D-01  1.7563906778594D-01
143  1.4200000000000D+00 -4.4899182266126D-01  1.6467039270765D-01
144  1.4300000000000D+00 -4.1176469551927D-01  1.5286809761674D-01
145  1.4400000000000D+00 -3.7419782609857D-01  1.4043373668458D-01
146  1.4500000000000D+00 -3.3668581655613D-01  1.2757241763542D-01
147  1.4600000000000D+00 -2.9962333725224D-01  1.1449096633309D-01
148  1.4700000000000D+00 -2.6339725976630D-01  1.0139354092886D-01
149  1.4800000000000D+00 -2.2837988407144D-01  8.8477790226701D-02
150  1.4900000000000D+00 -1.9492117030403D-01  7.5930442226623D-02
151  1.5000000000000D+00 -1.6334537653837D-01  6.3925253878139D-02
152  1.5100000000000D+00 -1.3394975902235D-01  5.2622057491079D-02
153  1.5200000000000D+00 -1.0700156951091D-01  4.2164931289564D-02
154  1.5300000000000D+00 -8.2736129314573D-02  3.2680956313634D-02
155  1.5400000000000D+00 -6.1354903237549D-02  2.4278995812293D-02
156  1.5500000000000D+00 -4.3033809114575D-02  1.7052585641808D-02
157  1.5600000000000D+00 -2.7879879513730D-02  1.1062496612699D-02
158  1.5700000000000D+00 -1.5919775027269D-02  6.3314618859635D-03
159  1.5800000000000D+00 -7.4038634065000D-03  2.9662268869956D-03
160  1.5900000000000D+00 -2.4901555867998D-03  1.0321165431018D-03
161  1.6000000000000D+00 -3.8655866515431D-04  2.0141497303455D-04
162  1.6100000000000D+00  1.2146626834660D-04 -2.1858554212501D-05
163  1.6200000000000D+00  3.9251415866311D-08 -1.1165759274933D-08
164  1.6300000000000D+00 -5.9047636208462D-05  1.8254345554810D-05
165  1.6400000000000D+00  9.6284034810064D-07 -2.4739125762300D-07
166  1.6500000000000D+00  9.4045543045071D-06 -2.5829651581013D-06
167  1.6600000000000D+00  1.4332558622687D-07 -7.9145804130741D-08
168  1.6700000000000D+00  8.4319778733947D-07 -4.6562214519470D-07
169  1.6800000000000D+00  0.0000000000000D+00  0.0000000000000D+00
170  1.6900000000000D+00  0.0000000000000D+00  0.0000000000000D+00
171  1.7000000000000D+00  0.0000000000000D+00  0.0000000000000D+00
172  1.7100000000000D+00  0.0000000000000D+00  0.0000000000000D+00
173  1.7200000000000D+00  0.0000000000000D+00  0.0000000000000D+00
174  1.7300000000000D+00  0.0000000000000D+00  0.0000000000000D+00
175  1.7400000000000D+00  0.0000000000000D+00  0.0000000000000D+00
176  1.7500000000000D+00  0.0000000000000D+00  0.0000000000000D+00
177  1.7600000000000D+00  0.0000000000000D+00  0.0000000000000D+00
178  1.7700000000000D+00  0.0000000000000D+00  0.0000000000000D+00
179  1.7800000000000D+00  0.0000000000000D+00  0.0000000000000D+00
180  1.7900000000000D+00  0.0000000000000D+00  0.0000000000000D+00
181  1.8000000000000D+00  0.0000000000000D+00  0.0000000000000D+00
182  1.8100000000000D+00  0.0000000000000D+00  0.0000000000000D+00
183  1.8200000000000D+00  0.0000000000000D+00  0.0000000000000D+00
184  1.8300000000000D+00  0.0000000000000D+00  0.0000000000000D+00
185  1.8400000000000D+00  0.0000000000000D+00  0.0000000000000D+00
186  1.8500000000000D+00  0.0000000000000D+00  0.0000000000000D+00
187  1.8600000000000D+00  0.0000000000000D+00  0.0000000000000D+00
188  1.8700000000000D+00  0.0000000000000D+00  0.0000000000000D+00
189  1.8800000000000D+00  0.0000000000000D+00  0.0000000000000D+00
190  1.8900000000000D+00  0.0000000000000D+00  0.0000000000000D+00
191  1.9000000000000D+00  0.0000000000000D+00  0.0000000000000D+00
192  1.9100000000000D+00  0.0000000000000D+00  0.0000000000000D+00
193  1.9200000000000D+00  0.0000000000000D+00  0.0000000000000D+00
194  1.9300000000000D+00  0.0000000000000D+00  0.0000000000000D+00
195  1.9400000000000D+00  0.0000000000000D+00  0.0000000000000D+00
196  1.9500000000000D+00  0.0000000000000D+00  0.0000000000000D+00
197  1.9600000000000D+00  0.0000000000000D+00  0.0000000000000D+00
198  1.9700000000000D+00  0.0000000000000D+00  0.0000000000000D+00
199  1.9800000000000D+00  0.0000000000000D+00  0.0000000000000D+00
200  1.9900000000000D+00  0.0000000000000D+00  0.0000000000000D+00
201  2.0000000000000D+00  0.0000000000000D+00  0.0000000000000D+00
202  2.0100000000000D+00  0.0000000000000D+00  0.0000000000000D+00
203  2.0200000000000D+00  0.0000000000000D+00  0.0000000000000D+00
204  2.0300000000000D+00  0.0000000000000D+00  0.0000000000000D+00
205  2.0400000000000D+00  0.0000000000000D+00  0.0000000000000D+00
206  2.0500000000000D+00  0.0000000000000D+00  0.0000000000000D+00
207  2.0600000000000D+00  0.0000000000000D+00  0.0000000000000D+00
208  2.0700000000000D+00  0.0000000000000D+00  0.0000000000000D+00
209  2.0800000000000D+00  0.0000000000000D+00  0.0000000000000D+00
210  2.0900000000000D+00  0.0000000000000D+00  0.0000000000000D+00
211  2.1000000000000D+00  0.0000000000000D+00  0.0000000000000D+00
212  2.1100000000000D+00  0.0000000000000D+00  0.0000000000000D+00
213  2.1200000000000D+00  0.0000000000000D+00  0.0000000000000D+00
214  2.1300000000000D+00  0.0000000000000D+00  0.0000000000000D+00
215  2.1400000000000D+00  0.0000000000000D+00  0.0000000000000D+00
216  2.1500000000000D+00  0.0000000000000D+00  0.0000000000000D+00
217  2.1600000000000D+00  0.0000000000000D+00  0.0000000000000D+00
218  2.1700000000000D+00  0.0000000000000D+00  0.0000000000000D+00
219  2.1800000000000D+00  0.0000000000000D+00  0.0000000000000D+00
220  2.1900000000000D+00  0.0000000000000D+00  0.0000000000000D+00
221  2.2000000000000D+00  0.0000000000000D+00  0.0000000000000D+00
222  2.2100000000000D+00  0.0000000000000D+00  0.0000000000000D+00
223  2.2200000000000D+00  0.0000000000000D+00  0.0000000000000D+00
224  2.2300000000000D+00  0.0000000000000D+00  0.0000000000000D+00
225  2.2400000000000D+00  0.0000000000000D+00  0.0000000000000D+00
226  2.2500000000000D+00  0.0000000000000D+00  0.0000000000000D+00
227  2.2600000000000D+00  0.0000000000000D+00  0.0000000000000D+00
228  2.2700000000000D+00  0.0000000000000D+00  0.0000000000000D+00
229  2.2800000000000D+00  0.0000000000000D+00  0.0000000000000D+00
230  2.2900000000000D+00  0.0000000000000D+00  0.0000000000000D+00
231  2.3000000000000D+00  0.0000000000000D+00  0.0000000000000D+00
232  2.3100000000000D+00  0.0000000000000D+00  0.0000000000000D+00
233  2.3200000000000D+00  0.0000000000000D+00  0.0000000000000D+00
234  2.3300000000000D+00  0.0000000000000D+00  0.0000000000000D+00
235  2.3400000000000D+00  0.0000000000000D+00  0.0000000000000D+00
236  2.3500000000000D+00  0.0000000000000D+00  0.0000000000000D+00
237  2.3600000000000D+00  0.0000000000000D+00  0.0000000000000D+00
238  2.3700000000000D+00  0.0000000000000D+00  0.0000000000000D+00
239  2.3800000000000D+00  0.0000000000000D+00  0.0000000000000D+00
240  2.3900000000000D+00  0.0000000000000D+00  0.0000000000000D+00
241  2.4000000000000D+00  0.0000000000000D+00  0.0000000000000D+00
242  2.4100000000000D+00  0.0000000000000D+00  0.0000000000000D+00
243  2.4200000000000D+00  0.0000000000000D+00  0.0000000000000D+00
244  2.4300000000000D+00  0.0000000000000D+00  0.0000000000000D+00
245  2.4400000000000D+00  0.0000000000000D+00  0.0000000000000D+00
246  2.4500000000000D+00  0.0000000000000D+00  0.0000000000000D+00
247  2.4600000000000D+00  0.0000000000000D+00  0.0000000000000D+00
248  2.4700000000000D+00  0.0000000000000D+00  0.0000000000000D+00
249  2.4800000000000D+00  0.0000000000000D+00  0.0000000000000D+00
250  2.4900000000000D+00  0.0000000000000D+00  0.0000000000000D+00
251  2.5000000000000D+00  0.0000000000000D+00  0.0000000000000D+00
252  2.5100000000000D+00  0.0000000000000D+00  0.0000000000000D+00
253  2.5200000000000D+00  0.0000000000000D+00  0.0000000000000D+00
254  2.5300000000000D+00  0.0000000000000D+00  0.0000000000000D+00
255  2.5400000000000D+00  0.0000000000000D+00  0.0000000000000D+00
256  2.5500000000000D+00  0.0000000000000D+00  0.0000000000000D+00
257  2.5600000000000D+00  0.0000000000000D+00  0.0000000000000D+00
258  2.5700000000000D+00  0.0000000000000D+00  0.0000000000000D+00
259  2.5800000000000D+00  0.0000000000000D+00  0.0000000000000D+00
260  2.5900000000000D+00  0.0000000000000D+00  0.0000000000000D+00
261  2.6000000000000D+00  0.0000000000000D+00  0.0000000000000D+00
262  2.6100000000000D+00  0.0000000000000D+00  0.0000000000000D+00
263  2.6200000000000D+00  0.0000000000000D+00  0.0000000000000D+00
264  2.6300000000000D+00  0.0000000000000D+00  0.0000000000000D+00
265  2.6400000000000D+00  0.0000000000000D+00  0.0000000000000D+00
266  2.6500000000000D+00  0.0000000000000D+00  0.0000000000000D+00
267  2.6600000000000D+00  0.0000000000000D+00  0.0000000000000D+00
268  2.6700000000000D+00  0.0000000000000D+00  0.0000000000000D+00
269  2.6800000000000D+00  0.0000000000000D+00  0.0000000000000D+00
270  2.6900000000000D+00  0.0000000000000D+00  0.0000000000000D+00
271  2.7000000000000D+00  0.0000000000000D+00  0.0000000000000D+00
272  2.7100000000000D+00  0.0000000000000D+00  0.0000000000000D+00
273  2.7200000000000D+00  0.0000000000000D+00  0.0000000000000D+00
274  2.7300000000000D+00  0.0000000000000D+00  0.0000000000000D+00
275  2.7400000000000D+00  0.0000000000000D+00  0.0000000000000D+00
276  2.7500000000000D+00  0.0000000000000D+00  0.0000000000000D+00
277  2.7600000000000D+00  0.0000000000000D+00  0.0000000000000D+00
278  2.7700000000000D+00  0.0000000000000D+00  0.0000000000000D+00
279  2.7800000000000D+00  0.0000000000000D+00  0.0000000000000D+00
280  2.7900000000000D+00  0.0000000000000D+00  0.0000000000000D+00
281  2.8000000000000D+00  0.0000000000000D+00  0.0000000000000D+00
282  2.8100000000000D+00  0.0000000000000D+00  0.0000000000000D+00
283  2.8200000000000D+00  0.0000000000000D+00  0.0000000000000D+00
284  2.8300000000000D+00  0.0000000000000D+00  0.0000000000000D+00
285  2.8400000000000D+00  0.0000000000000D+00  0.0000000000000D+00
286  2.8500000000000D+00  0.0000000000000D+00  0.0000000000000D+00
287  2.8600000000000D+00  0.0000000000000D+00  0.0000000000000D+00
288  2.8700000000000D+00  0.0000000000000D+00  0.0000000000000D+00
289  2.8800000000000D+00  0.0000000000000D+00  0.0000000000000D+00
290  2.8900000000000D+00  0.0000000000000D+00  0.0000000000000D+00
291  2.9000000000000D+00  0.0000000000000D+00  0.0000000000000D+00
292  2.9100000000000D+00  0.0000000000000D+00  0.0000000000000D+00
293  2.9200000000000D+00  0.0000000000000D+00  0.0000000000000D+00
294  2.9300000000000D+00  0.0000000000000D+00  0.0000000000000D+00
295  2.9400000000000D+00  0.0000000000000D+00  0.0000000000000D+00
296  2.9500000000000D+00  0.0000000000000D+00  0.0000000000000D+00
297  2.9600000000000D+00  0.0000000000000D+00  0.0000000000000D+00
298  2.9700000000000D+00  0.0000000000000D+00  0.0000000000000D+00
299  2.9800000000000D+00  0.0000000000000D+00  0.0000000000000D+00
300  2.9900000000000D+00  0.0000000000000D+00  0.0000000000000D+00
301  3.0000000000000D+00  0.0000000000000D+00  0.0000000000000D+00
302  3.0100000000000D+00  0.0000000000000D+00  0.0000000000000D+00
303  3.0200000000000D+00  0.0000000000000D+00  0.0000000000000D+00
304  3.0300000000000D+00  0.0000000000000D+00  0.0000000000000D+00
305  3.0400000000000D+00  0.0000000000000D+00  0.0000000000000D+00
306  3.0500000000000D+00  0.0000000000000D+00  0.0000000000000D+00
307  3.0600000000000D+00  0.0000000000000D+00  0.0000000000000D+00
308  3.0700000000000D+00  0.0000000000000D+00  0.0000000000000D+00
309  3.0800000000000D+00  0.0000000000000D+00  0.0000000000000D+00
310  3.0900000000000D+00  0.0000000000000D+00  0.0000000000000D+00
311  3.1000000000000D+00  0.0000000000000D+00  0.0000000000000D+00
312  3.1100000000000D+00  0.0000000000000D+00  0.0000000000000D+00
313  3.1200000000000D+00  0.0000000000000D+00  0.0000000000000D+00
314  3.1300000000000D+00  0.0000000000000D+00  0.0000000000000D+00
315  3.1400000000000D+00  0.0000000000000D+00  0.0000000000000D+00
316  3.1500000000000D+00  0.0000000000000D+00  0.0000000000000D+00
317  3.1600000000000D+00  0.0000000000000D+00  0.0000000000000D+00
318  3.1700000000000D+00  0.0000000000000D+00  0.0000000000000D+00
319  3.1800000000000D+00  0.0000000000000D+00  0.0000000000000D+00
320  3.1900000000000D+00  0.0000000000000D+00  0.0000000000000D+00
321  3.2000000000000D+00  0.0000000000000D+00  0.0000000000000D+00
322  3.2100000000000D+00  0.0000000000000D+00  0.0000000000000D+00
323  3.2200000000000D+00  0.0000000000000D+00  0.0000000000000D+00
324  3.2300000000000D+00  0.0000000000000D+00  0.0000000000000D+00
325  3.2400000000000D+00  0.0000000000000D+00  0.0000000000000D+00
326  3.2500000000000D+00  0.0000000000000D+00  0.0000000000000D+00
327  3.2600000000000D+00  0.0000000000000D+00  0.0000000000000D+00
328  3.2700000000000D+00  0.0000000000000D+00  0.0000000000000D+00
329  3.2800000000000D+00  0.0000000000000D+00  0.0000000000000D+00
330  3.2900000000000D+00  0.0000000000000D+00  0.0000000000000D+00
331  3.3000000000000D+00  0.0000000000000D+00  0.0000000000000D+00
332  3.3100000000000D+00  0.0000000000000D+00  0.0000000000000D+00
333  3.3200000000000D+00  0.0000000000000D+00  0.0000000000000D+00
334  3.3300000000000D+00  0.0000000000000D+00  0.0000000000000D+00
335  3.3400000000000D+00  0.0000000000000D+00  0.0000000000000D+00
336  3.3500000000000D+00  0.0000000000000D+00  0.0000000000000D+00
337  3.3600000000000D+00  0.0000000000000D+00  0.0000000000000D+00
338  3.3700000000000D+00  0.0000000000000D+00  0.0000000000000D+00
339  3.3800000000000D+00  0.0000000000000D+00  0.0000000000000D+00
340  3.3900000000000D+00  0.0000000000000D+00  0.0000000000000D+00
341  3.4000000000000D+00  0.0000000000000D+00  0.0000000000000D+00
342  3.4100000000000D+00  0.0000000000000D+00  0.0000000000000D+00
343  3.4200000000000D+00  0.0000000000000D+00  0.0000000000000D+00
344  3.4300000000000D+00  0.0000000000000D+00  0.0000000000000D+00
345  3.4400000000000D+00  0.0000000000000D+00  0.0000000000000D+00
346  3.4500000000000D+00  0.0000000000000D+00  0.0000000000000D+00
347  3.4600000000000D+00  0.0000000000000D+00  0.0000000000000D+00
348  3.4700000000000D+00  0.0000000000000D+00  0.0000000000000D+00
349  3.4800000000000D+00  0.0000000000000D+00  0.0000000000000D+00
350  3.4900000000000D+00  0.0000000000000D+00  0.0000000000000D+00
351  3.5000000000000D+00  0.0000000000000D+00  0.0000000000000D+00
352  3.5100000000000D+00  0.0000000000000D+00  0.0000000000000D+00
353  3.5200000000000D+00  0.0000000000000D+00  0.0000000000000D+00
354  3.5300000000000D+00  0.0000000000000D+00  0.0000000000000D+00
355  3.5400000000000D+00  0.0000000000000D+00  0.0000000000000D+00
356  3.5500000000000D+00  0.0000000000000D+00  0.0000000000000D+00
357  3.5600000000000D+00  0.0000000000000D+00  0.0000000000000D+00
358  3.5700000000000D+00  0.0000000000000D+00  0.0000000000000D+00
359  3.5800000000000D+00  0.0000000000000D+00  0.0000000000000D+00
360  3.5900000000000D+00  0.0000000000000D+00  0.0000000000000D+00
361  3.6000000000000D+00  0.0000000000000D+00  0.0000000000000D+00
362  3.6100000000000D+00  0.0000000000000D+00  0.0000000000000D+00
363  3.6200000000000D+00  0.0000000000000D+00  0.0000000000000D+00
364  3.6300000000000D+00  0.0000000000000D+00  0.0000000000000D+00
365  3.6400000000000D+00  0.0000000000000D+00  0.0000000000000D+00
366  3.6500000000000D+00  0.0000000000000D+00  0.0000000000000D+00
367  3.6600000000000D+00  0.0000000000000D+00  0.0000000000000D+00
368  3.6700000000000D+00  0.0000000000000D+00  0.0000000000000D+00
369  3.6800000000000D+00  0.0000000000000D+00  0.0000000000000D+00
370  3.6900000000000D+00  0.0000000000000D+00  0.0000000000000D+00
371  3.7000000000000D+00  0.0000000000000D+00  0.0000000000000D+00
372  3.7100000000000D+00  0.0000000000000D+00  0.0000000000000D+00
373  3.7200000000000D+00  0.0000000000000D+00  0.0000000000000D+00
374  3.7300000000000D+00  0.0000000000000D+00  0.0000000000000D+00
375  3.7400000000000D+00  0.0000000000000D+00  0.0000000000000D+00
376  3.7500000000000D+00  0.0000000000000D+00  0.0000000000000D+00
377  3.7600000000000D+00  0.0000000000000D+00  0.0000000000000D+00
378  3.7700000000000D+00  0.0000000000000D+00  0.0000000000000D+00
379  3.7800000000000D+00  0.0000000000000D+00  0.0000000000000D+00
380  3.7900000000000D+00  0.0000000000000D+00  0.0000000000000D+00
381  3.8000000000000D+00  0.0000000000000D+00  0.0000000000000D+00
382  3.8100000000000D+00  0.0000000000000D+00  0.0000000000000D+00
383  3.8200000000000D+00  0.0000000000000D+00  0.0000000000000D+00
384  3.8300000000000D+00  0.0000000000000D+00  0.0000000000000D+00
385  3.8400000000000D+00  0.0000000000000D+00  0.0000000000000D+00
386  3.8500000000000D+00  0.0000000000000D+00  0.0000000000000D+00
387  3.8600000000000D+00  0.0000000000000D+00  0.0000000000000D+00
388  3.8700000000000D+00  0.0000000000000D+00  0.0000000000000D+00
389  3.8800000000000D+00  0.0000000000000D+00  0.0000000000000D+00
390  3.8900000000000D+00  0.0000000000000D+00  0.0000000000000D+00
391  3.9000000000000D+00  0.0000000000000D+00  0.0000000000000D+00
392  3.9100000000000D+00  0.0000000000000D+00  0.0000000000000D+00
393  3.9200000000000D+00  0.0000000000000D+00  0.0000000000000D+00
394  3.9300000000000D+00  0.0000000000000D+00  0.0000000000000D+00
395  3.9400000000000D+00  0.0000000000000D+00  0.0000000000000D+00
396  3.9500000000000D+00  0.0000000000000D+00  0.0000000000000D+00
397  3.9600000000000D+00  0.0000000000000D+00  0.0000000000000D+00
398  3.9700000000000D+00  0.0000000000000D+00  0.0000000000000D+00
399  3.9800000000000D+00  0.0000000000000D+00  0.0000000000000D+00
400  3.9900000000000D+00  0.0000000000000D+00  0.0000000000000D+00
401  4.0000000000000D+00  0.0000000000000D+00  0.0000000000000D+00
402  4.0100000000000D+00  0.0000000000000D+00  0.0000000000000D+00
403  4.0200000000000D+00  0.0000000000000D+00  0.0000000000000D+00
404  4.0300000000000D+00  0.0000000000000D+00  0.0000000000000D+00
405  4.0400000000000D+00  0.0000000000000D+00  0.0000000000000D+00
406  4.0500000000000D+00  0.0000000000000D+00  0.0000000000000D+00
407  4.0600000000000D+00  0.0000000000000D+00  0.0000000000000D+00
408  4.0700000000000D+00  0.0000000000000D+00  0.0000000000000D+00
409  4.0800000000000D+00  0.0000000000000D+00  0.0000000000000D+00
410  4.0900000000000D+00  0.0000000000000D+00  0.0000000000000D+00
411  4.1000000000000D+00  0.0000000000000D+00  0.0000000000000D+00
412  4.1100000000000D+00  0.0000000000000D+00  0.0000000000000D+00
413  4.1200000000000D+00  0.0000000000000D+00  0.0000000000000D+00
414  4.1300000000000D+00  0.0000000000000D+00  0.0000000000000D+00
415  4.1400000000000D+00  0.0000000000000D+00  0.0000000000000D+00
416  4.1500000000000D+00  0.0000000000000D+00  0.0000000000000D+00
417  4.1600000000000D+00  0.0000000000000D+00  0.0000000000000D+00
418  4.1700000000000D+00  0.0000000000000D+00  0.0000000000000D+00
419  4.1800000000000D+00  0.0000000000000D+00  0.0000000000000D+00
420  4.1900000000000D+00  0.0000000000000D+00  0.0000000000000D+00
421  4.2000000000000D+00  0.0000000000000D+00  0.0000000000000D+00
422  4.2100000000000D+00  0.0000000000000D+00  0.0000000000000D+00
423  4.2200000000000D+00  0.0000000000000D+00  0.0000000000000D+00
424  4.2300000000000D+00  0.0000000000000D+00  0.0000000000000D+00
425  4.2400000000000D+00  0.0000000000000D+00  0.0000000000000D+00
426  4.2500000000000D+00  0.0000000000000D+00  0.0000000000000D+00
427  4.2600000000000D+00  0.0000000000000D+00  0.0000000000000D+00
428  4.2700000000000D+00  0.0000000000000D+00  0.0000000000000D+00
429  4.2800000000000D+00  0.0000000000000D+00  0.0000000000000D+00
430  4.2900000000000D+00  0.0000000000000D+00  0.0000000000000D+00
431  4.3000000000000D+00  0.0000000000000D+00  0.0000000000000D+00
432  4.3100000000000D+00  0.0000000000000D+00  0.0000000000000D+00
433  4.3200000000000D+00  0.0000000000000D+00  0.0000000000000D+00
434  4.3300000000000D+00  0.0000000000000D+00  0.0000000000000D+00
435  4.3400000000000D+00  0.0000000000000D+00  0.0000000000000D+00
436  4.3500000000000D+00  0.0000000000000D+00  0.0000000000000D+00
437  4.3600000000000D+00  0.0000000000000D+00  0.0000000000000D+00
438  4.3700000000000D+00  0.0000000000000D+00  0.0000000000000D+00
439  4.3800000000000D+00  0.0000000000000D+00  0.0000000000000D+00
440  4.3900000000000D+00  0.0000000000000D+00  0.0000000000000D+00
441  4.4000000000000D+00  0.0000000000000D+00  0.0000000000000D+00
442  4.4100000000000D+00  0.0000000000000D+00  0.0000000000000D+00
443  4.4200000000000D+00  0.0000000000000D+00  0.0000000000000D+00