I     ONCVPSP-3.3.0  r_core=   2.02042   2.17032   2.27639
53.0000      7.0000      180503    zatom,zion,pspd
8 -116133   2     4   600     0    pspcod,pspxc,lmax,lloc,mmax,r2well
5.99000000  4.00000000  0.00000000    rchrg fchrg qchrg
2     4     4     0    nproj
3     1           extension_switch
4     4     0    nprojso
0                         9.3141649400820D-01  6.0118446790691D+00
1  0.0000000000000D+00 -4.9595633155874D-11  6.9395600377220D-12
2  1.0000000000000D-02  2.5208608177962D-02  1.4523744365878D-02
3  2.0000000000000D-02  5.0278206656923D-02  2.9074700477898D-02
4  3.0000000000000D-02  7.5070445628692D-02  4.3679944631101D-02
5  4.0000000000000D-02  9.9448292148653D-02  5.8366282713534D-02
6  5.0000000000000D-02  1.2327668128498D-01  7.3160116239017D-02
7  6.0000000000000D-02  1.4642315856376D-01  8.8087309858549D-02
8  7.0000000000000D-02  1.6875851086688D-01  1.0317306083512D-01
9  8.0000000000000D-02  1.9015738298899D-01  1.1844177095973D-01
10  9.0000000000000D-02  2.1049887712157D-01  1.3391692137794D-01
11  1.0000000000000D-01  2.2966713260539D-01  1.4962095078579D-01
12  1.1000000000000D-01  2.4755188337736D-01  1.6557513744232D-01
13  1.2000000000000D-01  2.6404899063382D-01  1.8179948543217D-01
14  1.3000000000000D-01  2.7906094833867D-01  1.9831261559703D-01
15  1.4000000000000D-01  2.9249735932185D-01  2.1513166153806D-01
16  1.5000000000000D-01  3.0427537984019D-01  2.3227217107352D-01
17  1.6000000000000D-01  3.1432013060849D-01  2.4974801351671D-01
18  1.7000000000000D-01  3.2256507245336D-01  2.6757129311868D-01
19  1.8000000000000D-01  3.2895234489518D-01  2.8575226899842D-01
20  1.9000000000000D-01  3.3343306612331D-01  3.0429928186046D-01
21  2.0000000000000D-01  3.3596759299699D-01  3.2321868777558D-01
22  2.1000000000000D-01  3.3652573987732D-01  3.4251479927580D-01
23  2.2000000000000D-01  3.3508695527381D-01  3.6218983398848D-01
24  2.3000000000000D-01  3.3164045547256D-01  3.8224387100825D-01
25  2.4000000000000D-01  3.2618531449945D-01  4.0267481517769D-01
26  2.5000000000000D-01  3.1873050996202D-01  4.2347836942008D-01
27  2.6000000000000D-01  3.0929492450577D-01  4.4464801523889D-01
28  2.7000000000000D-01  2.9790730281431D-01  4.6617500146986D-01
29  2.8000000000000D-01  2.8460616427685D-01  4.8804834134239D-01
30  2.9000000000000D-01  2.6943967164096D-01  5.1025481787748D-01
31  3.0000000000000D-01  2.5246545616106D-01  5.3277899762009D-01
32  3.1000000000000D-01  2.3375039994460D-01  5.5560325267424D-01
33  3.2000000000000D-01  2.1337037638612D-01  5.7870779097980D-01
34  3.3000000000000D-01  1.9140994976441D-01  6.0207069474084D-01
35  3.4000000000000D-01  1.6796203525847D-01  6.2566796688643D-01
36  3.5000000000000D-01  1.4312752081359D-01  6.4947358541656D-01
37  3.6000000000000D-01  1.1701485245835D-01  6.7345956545777D-01
38  3.7000000000000D-01  8.9739584836488D-02  6.9759602882582D-01
39  3.8000000000000D-01  6.1423898872932D-02  7.2185128086646D-01
40  3.9000000000000D-01  3.2196088641152D-02  7.4619189431909D-01
41  4.0000000000000D-01  2.1900196376365D-03  7.7058279992379D-01
42  4.1000000000000D-01 -2.8455439201137D-02  7.9498738346809D-01
43  4.2000000000000D-01 -5.9597007284339D-02  8.1936758894703D-01
44  4.3000000000000D-01 -9.1087605391016D-02  8.4368402748881D-01
45  4.4000000000000D-01 -1.2277698727094D-01  8.6789609167744D-01
46  4.5000000000000D-01 -1.5451238707350D-01  8.9196207488538D-01
47  4.6000000000000D-01 -1.8613917978131D-01  9.1583929521096D-01
48  4.7000000000000D-01 -2.1750155176288D-01  9.3948422359957D-01
49  4.8000000000000D-01 -2.4844317850881D-01  9.6285261571252D-01
50  4.9000000000000D-01 -2.7880790657895D-01  9.8589964709484D-01
51  5.0000000000000D-01 -3.0844043676412D-01  1.0085800511811D+00
52  5.1000000000000D-01 -3.3718700545496D-01  1.0308482596693D+00
53  5.2000000000000D-01 -3.6489606121354D-01  1.0526585447831D+00
54  5.3000000000000D-01 -3.9141893355848D-01  1.0739651629390D+00
55  5.4000000000000D-01 -4.1661049100457D-01  1.0947224993263D+00
56  5.5000000000000D-01 -4.4032978543906D-01  1.1148852129092D+00
57  5.6000000000000D-01 -4.6244067997354D-01  1.1344083813543D+00
58  5.7000000000000D-01 -4.8281245747793D-01  1.1532476453927D+00
59  5.8000000000000D-01 -5.0132040708441D-01  1.1713593521220D+00
60  5.9000000000000D-01 -5.1784638604264D-01  1.1887006967639D+00
61  6.0000000000000D-01 -5.3227935441274D-01  1.2052298623933D+00
62  6.1000000000000D-01 -5.4451588019950D-01  1.2209061571658D+00
63  6.2000000000000D-01 -5.5446061265920D-01  1.2356901485784D+00
64  6.3000000000000D-01 -5.6202672164852D-01  1.2495437943089D+00
65  6.4000000000000D-01 -5.6713630103396D-01  1.2624305691917D+00
66  6.5000000000000D-01 -5.6972073433699D-01  1.2743155879030D+00
67  6.6000000000000D-01 -5.6972102095705D-01  1.2851657229417D+00
68  6.7000000000000D-01 -5.6708806148838D-01  1.2949497175103D+00
69  6.8000000000000D-01 -5.6178290082759D-01  1.3036382929204D+00
70  6.9000000000000D-01 -5.5377692795678D-01  1.3112042501608D+00
71  7.0000000000000D-01 -5.4305203147999D-01  1.3176225652960D+00
72  7.1000000000000D-01 -5.2960071018826D-01  1.3228704783754D+00
73  7.2000000000000D-01 -5.1342613812998D-01  1.3269275755644D+00
74  7.3000000000000D-01 -4.9454218386735D-01  1.3297758642266D+00
75  7.4000000000000D-01 -4.7297338380623D-01  1.3313998407159D+00
76  7.5000000000000D-01 -4.4875486969308D-01  1.3317865506586D+00
77  7.6000000000000D-01 -4.2193225058032D-01  1.3309256415359D+00
78  7.7000000000000D-01 -3.9256144976706D-01  1.3288094074014D+00
79  7.8000000000000D-01 -3.6070849742660D-01  1.3254328255964D+00
80  7.9000000000000D-01 -3.2644927983299D-01  1.3207935853538D+00
81  8.0000000000000D-01 -2.8986924629678D-01  1.3148921082100D+00
82  8.1000000000000D-01 -2.5106307511264D-01  1.3077315601709D+00
83  8.2000000000000D-01 -2.1013430000820D-01  1.2993178556076D+00
84  8.3000000000000D-01 -1.6719489876433D-01  1.2896596528855D+00
85  8.4000000000000D-01 -1.2236484584967D-01  1.2787683417582D+00
86  8.5000000000000D-01 -7.5771631077223D-02  1.2666580225862D+00
87  8.6000000000000D-01 -2.7549746445990D-02  1.2533454774669D+00
88  8.7000000000000D-01  2.2159856523216D-02  1.2388501333895D+00
89  8.8000000000000D-01  7.3210336513626D-02  1.2231940175569D+00
90  8.9000000000000D-01  1.2544955663217D-01  1.2064017050390D+00
91  9.0000000000000D-01  1.7872070044271D-01  1.1885002589501D+00
92  9.1000000000000D-01  2.3286290703321D-01  1.1695191633657D+00
93  9.2000000000000D-01  2.8771192225060D-01  1.1494902492168D+00
94  9.3000000000000D-01  3.4310076316360D-01  1.1284476134243D+00
95  9.4000000000000D-01  3.9886039275453D-01  1.1064275315547D+00
96  9.5000000000000D-01  4.5482040179585D-01  1.0834683643000D+00
97  9.6000000000000D-01  5.1080969483607D-01  1.0596104581026D+00
98  9.7000000000000D-01  5.6665717720329D-01  1.0348960402647D+00
99  9.8000000000000D-01  6.2219243993287D-01  1.0093691088962D+00
100  9.9000000000000D-01  6.7724643953897D-01  9.8307531807094D-01
101  1.0000000000000D+00  7.3165216957732D-01  9.5606185857482D-01
102  1.0100000000000D+00  7.8524532098825D-01  9.2837733463962D-01
103  1.0200000000000D+00  8.3786492826821D-01  9.0007163706831D-01
104  1.0300000000000D+00  8.8935399858470D-01  8.7119581316534D-01
105  1.0400000000000D+00  9.3956012103795D-01  8.4180193389306D-01
106  1.0500000000000D+00  9.8833605337001D-01  8.1194295868110D-01
107  1.0600000000000D+00  1.0355402835321D+00  7.8167259831934D-01
108  1.0700000000000D+00  1.0810375636478D+00  7.5104517636771D-01
109  1.0800000000000D+00  1.1246994140438D+00  7.2011548951709D-01
110  1.0900000000000D+00  1.1664045951604D+00  6.8893866733482D-01
111  1.1000000000000D+00  1.2060395453268D+00  6.5757003182620D-01
112  1.1100000000000D+00  1.2434987825364D+00  6.2606495723976D-01
113  1.1200000000000D+00  1.2786852685585D+00  5.9447873053830D-01
114  1.1300000000000D+00  1.3115107338646D+00  5.6286641295252D-01
115  1.1400000000000D+00  1.3418959620869D+00  5.3128270302472D-01
116  1.1500000000000D+00  1.3697710328928D+00  4.9978180154143D-01
117  1.1600000000000D+00  1.3950755223966D+00  4.6841727874167D-01
118  1.1700000000000D+00  1.4177586603688D+00  4.3724194417979D-01
119  1.1800000000000D+00  1.4377794437978D+00  4.0630771960391D-01
120  1.1900000000000D+00  1.4551067065241D+00  3.7566551519948D-01
121  1.2000000000000D+00  1.4697191448992D+00  3.4536510953123D-01
122  1.2100000000000D+00  1.4816052995891D+00  3.1545503350455D-01
123  1.2200000000000D+00  1.4907634939336D+00  2.8598245864442D-01
124  1.2300000000000D+00  1.4972017294630D+00  2.5699308997277D-01
125  1.2400000000000D+00  1.5009375392787D+00  2.2853106375701D-01
126  1.2500000000000D+00  1.5019978003635D+00  2.0063885036944D-01
127  1.2600000000000D+00  1.5004185060245D+00  1.7335716248161D-01
128  1.2700000000000D+00  1.4962444997739D+00  1.4672486880831D-01
129  1.2800000000000D+00  1.4895291722712D+00  1.2077891358225D-01
130  1.2900000000000D+00  1.4803341231029D+00  9.5554241919331D-02
131  1.3000000000000D+00  1.4687287892155D+00  7.1083731231142D-02
132  1.3100000000000D+00  1.4547900421354D+00  4.7398128801568D-02
133  1.3200000000000D+00  1.4386017562222D+00  2.4525995622356D-02
134  1.3300000000000D+00  1.4202543501864D+00  2.4936565892152D-03
135  1.3400000000000D+00  1.3998443044535D+00 -1.8674842896678D-02
136  1.3500000000000D+00  1.3774736569228D+00 -3.8957773881769D-02
137  1.3600000000000D+00  1.3532494797319D+00 -5.8335754327337D-02
138  1.3700000000000D+00  1.3272833398824D+00 -7.6791773115555D-02
139  1.3800000000000D+00  1.2996907464654D+00 -9.4311207596032D-02
140  1.3900000000000D+00  1.2705905873969D+00 -1.1088183470681D-01
141  1.4000000000000D+00  1.2401045585715D+00 -1.2649383574724D-01
142  1.4100000000000D+00  1.2083565883447D+00 -1.4113979484105D-01
143  1.4200000000000D+00  1.1754722603099D+00 -1.5481469120902D-01
144  1.4300000000000D+00  1.1415782372440D+00 -1.6751588534296D-01
145  1.4400000000000D+00  1.1068016892194D+00 -1.7924309919200D-01
146  1.4500000000000D+00  1.0712697285775D+00 -1.8999839052477D-01
147  1.4600000000000D+00  1.0351088547853D+00 -1.9978612157522D-01
148  1.4700000000000D+00  9.9844441169769D-01 -2.0861292217144D-01
149  1.4800000000000D+00  9.6140005999556D-01 -2.1648764749356D-01
150  1.4900000000000D+00  9.2409726738550D-01 -2.2342133065256D-01
151  1.5000000000000D+00  8.8665481875382D-01 -2.2942713029040D-01
152  1.5100000000000D+00  8.4918834906144D-01 -2.3452027338178D-01
153  1.5200000000000D+00  8.1180990046611D-01 -2.3871799347689D-01
154  1.5300000000000D+00  7.7462750651872D-01 -2.4203946456826D-01
155  1.5400000000000D+00  7.3774480448183D-01 -2.4450573083402D-01
156  1.5500000000000D+00  7.0126067814288D-01 -2.4613963246128D-01
157  1.5600000000000D+00  6.6526893219948D-01 -2.4696572779647D-01
158  1.5700000000000D+00  6.2985799971090D-01 -2.4701021204731D-01
159  1.5800000000000D+00  5.9511068390761D-01 -2.4630083277876D-01
160  1.5900000000000D+00  5.6110393481894D-01 -2.4486680243637D-01
161  1.6000000000000D+00  5.2790866228511D-01 -2.4273870814117D-01
162  1.6100000000000D+00  4.9558958471477D-01 -2.3994841898575D-01
163  1.6200000000000D+00  4.6420511542566D-01 -2.3652899108290D-01
164  1.6300000000000D+00  4.3380728484313D-01 -2.3251457058198D-01
165  1.6400000000000D+00  4.0444170060775D-01 -2.2794029491572D-01
166  1.6500000000000D+00  3.7614754286686D-01 -2.2284219246984D-01
167  1.6600000000000D+00  3.4895759686844D-01 -2.1725708095086D-01
168  1.6700000000000D+00  3.2289831940300D-01 -2.1122246461915D-01
169  1.6800000000000D+00  2.9798994093831D-01 -2.0477643067014D-01
170  1.6900000000000D+00  2.7424659960340D-01 -1.9795754490770D-01
171  1.7000000000000D+00  2.5167650844058D-01 -1.9080474699631D-01
172  1.7100000000000D+00  2.3028215175693D-01 -1.8335724541134D-01
173  1.7200000000000D+00  2.1006051161942D-01 -1.7565441237861D-01
174  1.7300000000000D+00  1.9100332001426D-01 -1.6773567889407D-01
175  1.7400000000000D+00  1.7309733736702D-01 -1.5964043012103D-01
176  1.7500000000000D+00  1.5632465275562D-01 -1.5140790122631D-01
177  1.7600000000000D+00  1.4066300602866D-01 -1.4307707395483D-01
178  1.7700000000000D+00  1.2608612731590D-01 -1.3468657398441D-01
179  1.7800000000000D+00  1.1256409334823D-01 -1.2627456934637D-01
180  1.7900000000000D+00  1.0006369661694D-01 -1.1787866995268D-01
181  1.8000000000000D+00  8.8548825831793D-02 -1.0953582848455D-01
182  1.8100000000000D+00  7.7980854393375D-02 -1.0128224269771D-01
183  1.8200000000000D+00  6.8319034477662D-02 -9.3153259355331D-02
184  1.8300000000000D+00  5.9520894038867D-02 -8.5183279871798D-02
185  1.8400000000000D+00  5.1542633823429D-02 -7.7405667824159D-02
186  1.8500000000000D+00  4.4339521904010D-02 -6.9852658452245D-02
187  1.8600000000000D+00  3.7866283004957D-02 -6.2555270244929D-02
188  1.8700000000000D+00  3.2077479599260D-02 -5.5543218775302D-02
189  1.8800000000000D+00  2.6927883229767D-02 -4.8844832825641D-02
190  1.8900000000000D+00  2.2372831607999D-02 -4.2486972998908D-02
191  1.9000000000000D+00  1.8368571893288D-02 -3.6494952823171D-02
192  1.9100000000000D+00  1.4872584272079D-02 -3.0892462545425D-02
193  1.9200000000000D+00  1.1843887307176D-02 -2.5701495634594D-02
194  1.9300000000000D+00  9.2433197642014D-03 -2.0942278143572D-02
195  1.9400000000000D+00  7.0337989695682D-03 -1.6633200998945D-02
196  1.9500000000000D+00  5.1806044954512D-03 -1.2790982102014D-02
197  1.9600000000000D+00  3.6519939032571D-03 -9.4324424951740D-03
198  1.9700000000000D+00  2.4168500123342D-03 -6.5631678014927D-03
199  1.9800000000000D+00  1.4471658276175D-03 -4.1845574673122D-03
200  1.9900000000000D+00  7.2364505388034D-04 -2.3313663966817D-03
201  2.0000000000000D+00  2.2814827127373D-04 -1.0345691653799D-03
202  2.0100000000000D+00 -6.0677807026725D-05 -2.6882469910503D-04
203  2.0200000000000D+00 -1.7028144935074D-04  7.4753532999563D-05
204  2.0300000000000D+00 -1.3300646412683D-04  1.2673926853620D-04
205  2.0400000000000D+00 -4.0157134554457D-05  4.5235136345465D-05
206  2.0500000000000D+00  2.0265421171567D-05 -2.3986266562918D-05
207  2.0600000000000D+00  2.2289413363401D-05 -2.7661590587559D-05
208  2.0700000000000D+00 -7.1947926109687D-07  7.7050412219729D-07
209  2.0800000000000D+00 -5.6399851138543D-06  6.1970255851663D-06
210  2.0900000000000D+00 -2.5292909982839D-06  2.8334587994323D-06
211  2.1000000000000D+00  3.5893381995033D-07 -1.7128003940543D-07
212  2.1100000000000D+00  4.2817763271029D-07 -2.0432257348524D-07
213  2.1200000000000D+00  0.0000000000000D+00  0.0000000000000D+00
214  2.1300000000000D+00  0.0000000000000D+00  0.0000000000000D+00
215  2.1400000000000D+00  0.0000000000000D+00  0.0000000000000D+00
216  2.1500000000000D+00  0.0000000000000D+00  0.0000000000000D+00
217  2.1600000000000D+00  0.0000000000000D+00  0.0000000000000D+00
218  2.1700000000000D+00  0.0000000000000D+00  0.0000000000000D+00
219  2.1800000000000D+00  0.0000000000000D+00  0.0000000000000D+00
220  2.1900000000000D+00  0.0000000000000D+00  0.0000000000000D+00
221  2.2000000000000D+00  0.0000000000000D+00  0.0000000000000D+00
222  2.2100000000000D+00  0.0000000000000D+00  0.0000000000000D+00
223  2.2200000000000D+00  0.0000000000000D+00  0.0000000000000D+00
224  2.2300000000000D+00  0.0000000000000D+00  0.0000000000000D+00
225  2.2400000000000D+00  0.0000000000000D+00  0.0000000000000D+00
226  2.2500000000000D+00  0.0000000000000D+00  0.0000000000000D+00
227  2.2600000000000D+00  0.0000000000000D+00  0.0000000000000D+00
228  2.2700000000000D+00  0.0000000000000D+00  0.0000000000000D+00
229  2.2800000000000D+00  0.0000000000000D+00  0.0000000000000D+00
230  2.2900000000000D+00  0.0000000000000D+00  0.0000000000000D+00
231  2.3000000000000D+00  0.0000000000000D+00  0.0000000000000D+00
232  2.3100000000000D+00  0.0000000000000D+00  0.0000000000000D+00
233  2.3200000000000D+00  0.0000000000000D+00  0.0000000000000D+00
234  2.3300000000000D+00  0.0000000000000D+00  0.0000000000000D+00
235  2.3400000000000D+00  0.0000000000000D+00  0.0000000000000D+00
236  2.3500000000000D+00  0.0000000000000D+00  0.0000000000000D+00
237  2.3600000000000D+00  0.0000000000000D+00  0.0000000000000D+00
238  2.3700000000000D+00  0.0000000000000D+00  0.0000000000000D+00
239  2.3800000000000D+00  0.0000000000000D+00  0.0000000000000D+00
240  2.3900000000000D+00  0.0000000000000D+00  0.0000000000000D+00
241  2.4000000000000D+00  0.0000000000000D+00  0.0000000000000D+00
242  2.4100000000000D+00  0.0000000000000D+00  0.0000000000000D+00
243  2.4200000000000D+00  0.0000000000000D+00  0.0000000000000D+00
244  2.4300000000000D+00  0.0000000000000D+00  0.0000000000000D+00
245  2.4400000000000D+00  0.0000000000000D+00  0.0000000000000D+00
246  2.4500000000000D+00  0.0000000000000D+00  0.0000000000000D+00
247  2.4600000000000D+00  0.0000000000000D+00  0.0000000000000D+00
248  2.4700000000000D+00  0.0000000000000D+00  0.0000000000000D+00
249  2.4800000000000D+00  0.0000000000000D+00  0.0000000000000D+00
250  2.4900000000000D+00  0.0000000000000D+00  0.0000000000000D+00
251  2.5000000000000D+00  0.0000000000000D+00  0.0000000000000D+00
252  2.5100000000000D+00  0.0000000000000D+00  0.0000000000000D+00
253  2.5200000000000D+00  0.0000000000000D+00  0.0000000000000D+00
254  2.5300000000000D+00  0.0000000000000D+00  0.0000000000000D+00
255  2.5400000000000D+00  0.0000000000000D+00  0.0000000000000D+00
256  2.5500000000000D+00  0.0000000000000D+00  0.0000000000000D+00
257  2.5600000000000D+00  0.0000000000000D+00  0.0000000000000D+00
258  2.5700000000000D+00  0.0000000000000D+00  0.0000000000000D+00
259  2.5800000000000D+00  0.0000000000000D+00  0.0000000000000D+00
260  2.5900000000000D+00  0.0000000000000D+00  0.0000000000000D+00
261  2.6000000000000D+00  0.0000000000000D+00  0.0000000000000D+00
262  2.6100000000000D+00  0.0000000000000D+00  0.0000000000000D+00
263  2.6200000000000D+00  0.0000000000000D+00  0.0000000000000D+00
264  2.6300000000000D+00  0.0000000000000D+00  0.0000000000000D+00
265  2.6400000000000D+00  0.0000000000000D+00  0.0000000000000D+00
266  2.6500000000000D+00  0.0000000000000D+00  0.0000000000000D+00
267  2.6600000000000D+00  0.0000000000000D+00  0.0000000000000D+00
268  2.6700000000000D+00  0.0000000000000D+00  0.0000000000000D+00
269  2.6800000000000D+00  0.0000000000000D+00  0.0000000000000D+00
270  2.6900000000000D+00  0.0000000000000D+00  0.0000000000000D+00
271  2.7000000000000D+00  0.0000000000000D+00  0.0000000000000D+00
272  2.7100000000000D+00  0.0000000000000D+00  0.0000000000000D+00
273  2.7200000000000D+00  0.0000000000000D+00  0.0000000000000D+00
274  2.7300000000000D+00  0.0000000000000D+00  0.0000000000000D+00
275  2.7400000000000D+00  0.0000000000000D+00  0.0000000000000D+00
276  2.7500000000000D+00  0.0000000000000D+00  0.0000000000000D+00
277  2.7600000000000D+00  0.0000000000000D+00  0.0000000000000D+00
278  2.7700000000000D+00  0.0000000000000D+00  0.0000000000000D+00
279  2.7800000000000D+00  0.0000000000000D+00  0.0000000000000D+00
280  2.7900000000000D+00  0.0000000000000D+00  0.0000000000000D+00
281  2.8000000000000D+00  0.0000000000000D+00  0.0000000000000D+00
282  2.8100000000000D+00  0.0000000000000D+00  0.0000000000000D+00
283  2.8200000000000D+00  0.0000000000000D+00  0.0000000000000D+00
284  2.8300000000000D+00  0.0000000000000D+00  0.0000000000000D+00
285  2.8400000000000D+00  0.0000000000000D+00  0.0000000000000D+00
286  2.8500000000000D+00  0.0000000000000D+00  0.0000000000000D+00
287  2.8600000000000D+00  0.0000000000000D+00  0.0000000000000D+00
288  2.8700000000000D+00  0.0000000000000D+00  0.0000000000000D+00
289  2.8800000000000D+00  0.0000000000000D+00  0.0000000000000D+00
290  2.8900000000000D+00  0.0000000000000D+00  0.0000000000000D+00
291  2.9000000000000D+00  0.0000000000000D+00  0.0000000000000D+00
292  2.9100000000000D+00  0.0000000000000D+00  0.0000000000000D+00
293  2.9200000000000D+00  0.0000000000000D+00  0.0000000000000D+00
294  2.9300000000000D+00  0.0000000000000D+00  0.0000000000000D+00
295  2.9400000000000D+00  0.0000000000000D+00  0.0000000000000D+00
296  2.9500000000000D+00  0.0000000000000D+00  0.0000000000000D+00
297  2.9600000000000D+00  0.0000000000000D+00  0.0000000000000D+00
298  2.9700000000000D+00  0.0000000000000D+00  0.0000000000000D+00
299  2.9800000000000D+00  0.0000000000000D+00  0.0000000000000D+00
300  2.9900000000000D+00  0.0000000000000D+00  0.0000000000000D+00
301  3.0000000000000D+00  0.0000000000000D+00  0.0000000000000D+00
302  3.0100000000000D+00  0.0000000000000D+00  0.0000000000000D+00
303  3.0200000000000D+00  0.0000000000000D+00  0.0000000000000D+00
304  3.0300000000000D+00  0.0000000000000D+00  0.0000000000000D+00
305  3.0400000000000D+00  0.0000000000000D+00  0.0000000000000D+00
306  3.0500000000000D+00  0.0000000000000D+00  0.0000000000000D+00
307  3.0600000000000D+00  0.0000000000000D+00  0.0000000000000D+00
308  3.0700000000000D+00  0.0000000000000D+00  0.0000000000000D+00
309  3.0800000000000D+00  0.0000000000000D+00  0.0000000000000D+00
310  3.0900000000000D+00  0.0000000000000D+00  0.0000000000000D+00
311  3.1000000000000D+00  0.0000000000000D+00  0.0000000000000D+00
312  3.1100000000000D+00  0.0000000000000D+00  0.0000000000000D+00
313  3.1200000000000D+00  0.0000000000000D+00  0.0000000000000D+00
314  3.1300000000000D+00  0.0000000000000D+00  0.0000000000000D+00
315  3.1400000000000D+00  0.0000000000000D+00  0.0000000000000D+00
316  3.1500000000000D+00  0.0000000000000D+00  0.0000000000000D+00
317  3.1600000000000D+00  0.0000000000000D+00  0.0000000000000D+00
318  3.1700000000000D+00  0.0000000000000D+00  0.0000000000000D+00
319  3.1800000000000D+00  0.0000000000000D+00  0.0000000000000D+00
320  3.1900000000000D+00  0.0000000000000D+00  0.0000000000000D+00
321  3.2000000000000D+00  0.0000000000000D+00  0.0000000000000D+00
322  3.2100000000000D+00  0.0000000000000D+00  0.0000000000000D+00
323  3.2200000000000D+00  0.0000000000000D+00  0.0000000000000D+00
324  3.2300000000000D+00  0.0000000000000D+00  0.0000000000000D+00
325  3.2400000000000D+00  0.0000000000000D+00  0.0000000000000D+00
326  3.2500000000000D+00  0.0000000000000D+00  0.0000000000000D+00
327  3.2600000000000D+00  0.0000000000000D+00  0.0000000000000D+00
328  3.2700000000000D+00  0.0000000000000D+00  0.0000000000000D+00
329  3.2800000000000D+00  0.0000000000000D+00  0.0000000000000D+00
330  3.2900000000000D+00  0.0000000000000D+00  0.0000000000000D+00
331  3.3000000000000D+00  0.0000000000000D+00  0.0000000000000D+00
332  3.3100000000000D+00  0.0000000000000D+00  0.0000000000000D+00
333  3.3200000000000D+00  0.0000000000000D+00  0.0000000000000D+00
334  3.3300000000000D+00  0.0000000000000D+00  0.0000000000000D+00
335  3.3400000000000D+00  0.0000000000000D+00  0.0000000000000D+00
336  3.3500000000000D+00  0.0000000000000D+00  0.0000000000000D+00
337  3.3600000000000D+00  0.0000000000000D+00  0.0000000000000D+00
338  3.3700000000000D+00  0.0000000000000D+00  0.0000000000000D+00
339  3.3800000000000D+00  0.0000000000000D+00  0.0000000000000D+00
340  3.3900000000000D+00  0.0000000000000D+00  0.0000000000000D+00
341  3.4000000000000D+00  0.0000000000000D+00  0.0000000000000D+00
342  3.4100000000000D+00  0.0000000000000D+00  0.0000000000000D+00
343  3.4200000000000D+00  0.0000000000000D+00  0.0000000000000D+00
344  3.4300000000000D+00  0.0000000000000D+00  0.0000000000000D+00
345  3.4400000000000D+00  0.0000000000000D+00  0.0000000000000D+00
346  3.4500000000000D+00  0.0000000000000D+00  0.0000000000000D+00
347  3.4600000000000D+00  0.0000000000000D+00  0.0000000000000D+00
348  3.4700000000000D+00  0.0000000000000D+00  0.0000000000000D+00
349  3.4800000000000D+00  0.0000000000000D+00  0.0000000000000D+00
350  3.4900000000000D+00  0.0000000000000D+00  0.0000000000000D+00
351  3.5000000000000D+00  0.0000000000000D+00  0.0000000000000D+00
352  3.5100000000000D+00  0.0000000000000D+00  0.0000000000000D+00
353  3.5200000000000D+00  0.0000000000000D+00  0.0000000000000D+00
354  3.5300000000000D+00  0.0000000000000D+00  0.0000000000000D+00
355  3.5400000000000D+00  0.0000000000000D+00  0.0000000000000D+00
356  3.5500000000000D+00  0.0000000000000D+00  0.0000000000000D+00
357  3.5600000000000D+00  0.0000000000000D+00  0.0000000000000D+00
358  3.5700000000000D+00  0.0000000000000D+00  0.0000000000000D+00
359  3.5800000000000D+00  0.0000000000000D+00  0.0000000000000D+00
360  3.5900000000000D+00  0.0000000000000D+00  0.0000000000000D+00
361  3.6000000000000D+00  0.0000000000000D+00  0.0000000000000D+00
362  3.6100000000000D+00  0.0000000000000D+00  0.0000000000000D+00
363  3.6200000000000D+00  0.0000000000000D+00  0.0000000000000D+00
364  3.6300000000000D+00  0.0000000000000D+00  0.0000000000000D+00
365  3.6400000000000D+00  0.0000000000000D+00  0.0000000000000D+00
366  3.6500000000000D+00  0.0000000000000D+00  0.0000000000000D+00
367  3.6600000000000D+00  0.0000000000000D+00  0.0000000000000D+00
368  3.6700000000000D+00  0.0000000000000D+00  0.0000000000000D+00
369  3.6800000000000D+00  0.0000000000000D+00  0.0000000000000D+00
370  3.6900000000000D+00  0.0000000000000D+00  0.0000000000000D+00
371  3.7000000000000D+00  0.0000000000000D+00  0.0000000000000D+00
372  3.7100000000000D+00  0.0000000000000D+00  0.0000000000000D+00
373  3.7200000000000D+00  0.0000000000000D+00  0.0000000000000D+00
374  3.7300000000000D+00  0.0000000000000D+00  0.0000000000000D+00
375  3.7400000000000D+00  0.0000000000000D+00  0.0000000000000D+00
376  3.7500000000000D+00  0.0000000000000D+00  0.0000000000000D+00
377  3.7600000000000D+00  0.0000000000000D+00  0.0000000000000D+00
378  3.7700000000000D+00  0.0000000000000D+00  0.0000000000000D+00
379  3.7800000000000D+00  0.0000000000000D+00  0.0000000000000D+00
380  3.7900000000000D+00  0.0000000000000D+00  0.0000000000000D+00
381  3.8000000000000D+00  0.0000000000000D+00  0.0000000000000D+00
382  3.8100000000000D+00  0.0000000000000D+00  0.0000000000000D+00
383  3.8200000000000D+00  0.0000000000000D+00  0.0000000000000D+00
384  3.8300000000000D+00  0.0000000000000D+00  0.0000000000000D+00
385  3.8400000000000D+00  0.0000000000000D+00  0.0000000000000D+00
386  3.8500000000000D+00  0.0000000000000D+00  0.0000000000000D+00
387  3.8600000000000D+00  0.0000000000000D+00  0.0000000000000D+00
388  3.8700000000000D+00  0.0000000000000D+00  0.0000000000000D+00
389  3.8800000000000D+00  0.0000000000000D+00  0.0000000000000D+00
390  3.8900000000000D+00  0.0000000000000D+00  0.0000000000000D+00
391  3.9000000000000D+00  0.0000000000000D+00  0.0000000000000D+00
392  3.9100000000000D+00  0.0000000000000D+00  0.0000000000000D+00
393  3.9200000000000D+00  0.0000000000000D+00  0.0000000000000D+00
394  3.9300000000000D+00  0.0000000000000D+00  0.0000000000000D+00
395  3.9400000000000D+00  0.0000000000000D+00  0.0000000000000D+00
396  3.9500000000000D+00  0.0000000000000D+00  0.0000000000000D+00
397  3.9600000000000D+00  0.0000000000000D+00  0.0000000000000D+00
398  3.9700000000000D+00  0.0000000000000D+00  0.0000000000000D+00
399  3.9800000000000D+00  0.0000000000000D+00  0.0000000000000D+00
400  3.9900000000000D+00  0.0000000000000D+00  0.0000000000000D+00
401  4.0000000000000D+00  0.0000000000000D+00  0.0000000000000D+00
402  4.0100000000000D+00  0.0000000000000D+00  0.0000000000000D+00
403  4.0200000000000D+00  0.0000000000000D+00  0.0000000000000D+00
404  4.0300000000000D+00  0.0000000000000D+00  0.0000000000000D+00
405  4.0400000000000D+00  0.0000000000000D+00  0.0000000000000D+00
406  4.0500000000000D+00  0.0000000000000D+00  0.0000000000000D+00
407  4.0600000000000D+00  0.0000000000000D+00  0.0000000000000D+00
408  4.0700000000000D+00  0.0000000000000D+00  0.0000000000000D+00
409  4.0800000000000D+00  0.0000000000000D+00  0.0000000000000D+00
410  4.0900000000000D+00  0.0000000000000D+00  0.0000000000000D+00
411  4.1000000000000D+00  0.0000000000000D+00  0.0000000000000D+00
412  4.1100000000000D+00  0.0000000000000D+00  0.0000000000000D+00
413  4.1200000000000D+00  0.0000000000000D+00  0.0000000000000D+00
414  4.1300000000000D+00  0.0000000000000D+00  0.0000000000000D+00
415  4.1400000000000D+00  0.0000000000000D+00  0.0000000000000D+00
416  4.1500000000000D+00  0.0000000000000D+00  0.0000000000000D+00
417  4.1600000000000D+00  0.0000000000000D+00  0.0000000000000D+00
418  4.1700000000000D+00  0.0000000000000D+00  0.0000000000000D+00
419  4.1800000000000D+00  0.0000000000000D+00  0.0000000000000D+00
420  4.1900000000000D+00  0.0000000000000D+00  0.0000000000000D+00
421  4.2000000000000D+00  0.0000000000000D+00  0.0000000000000D+00
422  4.2100000000000D+00  0.0000000000000D+00  0.0000000000000D+00
423  4.2200000000000D+00  0.0000000000000D+00  0.0000000000000D+00
424  4.2300000000000D+00  0.0000000000000D+00  0.0000000000000D+00
425  4.2400000000000D+00  0.0000000000000D+00  0.0000000000000D+00
426  4.2500000000000D+00  0.0000000000000D+00  0.0000000000000D+00
427  4.2600000000000D+00  0.0000000000000D+00  0.0000000000000D+00
428  4.2700000000000D+00  0.0000000000000D+00  0.0000000000000D+00
429  4.2800000000000D+00  0.0000000000000D+00  0.0000000000000D+00
430  4.2900000000000D+00  0.0000000000000D+00  0.0000000000000D+00
431  4.3000000000000D+00  0.0000000000000D+00  0.0000000000000D+00
432  4.3100000000000D+00  0.0000000000000D+00  0.0000000000000D+00
433  4.3200000000000D+00  0.0000000000000D+00  0.0000000000000D+00
434  4.3300000000000D+00  0.0000000000000D+00  0.0000000000000D+00
435  4.3400000000000D+00  0.0000000000000D+00  0.0000000000000D+00
436  4.3500000000000D+00  0.0000000000000D+00  0.0000000000000D+00
437  4.3600000000000D+00  0.0000000000000D+00  0.0000000000000D+00
438  4.3700000000000D+00  0.0000000000000D+00  0.0000000000000D+00
439  4.3800000000000D+00  0.0000000000000D+00  0.0000000000000D+00
440  4.3900000000000D+00  0.0000000000000D+00  0.0000000000000D+00
441  4.4000000000000D+00  0.0000000000000D+00  0.0000000000000D+00
442  4.4100000000000D+00  0.0000000000000D+00  0.0000000000000D+00
443  4.4200000000000D+00  0.0000000000000D+00  0.0000000000000D+00