In    ONCVPSP-3.3.0  r_core=   2.10853   2.37566   1.87143
49.0000     13.0000      180430    zatom,zion,pspd
8 -116133   2     4   600     0    pspcod,pspxc,lmax,lloc,mmax,r2well
5.99000000  5.00000000  0.00000000    rchrg fchrg qchrg
2     4     2     0    nproj
3     1           extension_switch
4     3     0    nprojso
0                         1.9367732250346D+00  1.3050526637199D+01
1  0.0000000000000D+00  2.0054785609958D-10 -1.9980334053926D-10
2  1.0000000000000D-02 -4.0530690407966D-02  5.9164592747206D-02
3  2.0000000000000D-02 -8.0786857155282D-02  1.1804856302987D-01
4  3.0000000000000D-02 -1.2049556907801D-01  1.7637290931667D-01
5  4.0000000000000D-02 -1.5938707086611D-01  2.3386186271347D-01
6  5.0000000000000D-02 -1.9719634819242D-01  2.9024448025957D-01
7  6.0000000000000D-02 -2.3366466562594D-01  3.4525621073842D-01
8  7.0000000000000D-02 -2.6854106849341D-01  3.9864042407582D-01
9  8.0000000000000D-02 -3.0158384005351D-01  4.5014989559862D-01
10  9.0000000000000D-02 -3.3256190559700D-01  4.9954823667427D-01
11  1.0000000000000D-01 -3.6125617538145D-01  5.4661126354683D-01
12  1.1000000000000D-01 -3.8746081865061D-01  5.9112829652434D-01
13  1.2000000000000D-01 -4.1098446137264D-01  6.3290338205641D-01
14  1.3000000000000D-01 -4.3165130075832D-01  6.7175643066564D-01
15  1.4000000000000D-01 -4.4930213008534D-01  7.0752426416111D-01
16  1.5000000000000D-01 -4.6379526785800D-01  7.4006156606374D-01
17  1.6000000000000D-01 -4.7500738586827D-01  7.6924172970917D-01
18  1.7000000000000D-01 -4.8283423129290D-01  7.9495759906170D-01
19  1.8000000000000D-01 -4.8719123855814D-01  8.1712209786903D-01
20  1.9000000000000D-01 -4.8801402732611D-01  8.3566874340957D-01
21  2.0000000000000D-01 -4.8525878360127D-01  8.5055204172877D-01
22  2.1000000000000D-01 -4.7890252161843D-01  8.6174776192389D-01
23  2.2000000000000D-01 -4.6894322485182D-01  8.6925308771568D-01
24  2.3000000000000D-01 -4.5539986517414D-01  8.7308664523601D-01
25  2.4000000000000D-01 -4.3831229989142D-01  8.7328840665932D-01
26  2.5000000000000D-01 -4.1774104708044D-01  8.6991947000881D-01
27  2.6000000000000D-01 -3.9376694035604D-01  8.6306171617208D-01
28  2.7000000000000D-01 -3.6649066489240D-01  8.5281734486128D-01
29  2.8000000000000D-01 -3.3603217721137D-01  8.3930829194597D-01
30  2.9000000000000D-01 -3.0253001192752D-01  8.2267553126920D-01
31  3.0000000000000D-01 -2.6614047930179D-01  8.0307826472458D-01
32  3.1000000000000D-01 -2.2703675809678D-01  7.8069300502079D-01
33  3.2000000000000D-01 -1.8540788884639D-01  7.5571255618649D-01
34  3.3000000000000D-01 -1.4145767324389D-01  7.2834489746883D-01
35  3.4000000000000D-01 -9.5403485914897D-02  6.9881197684993D-01
36  3.5000000000000D-01 -4.7475005369271D-02  6.6734842094351D-01
37  3.6000000000000D-01  2.0871285823005D-03  6.3420016853623D-01
38  3.7000000000000D-01  5.3032723210561D-02  5.9962303550089D-01
39  3.8000000000000D-01  1.0510349890340D-01  5.6388121922984D-01
40  3.9000000000000D-01  1.5803460434692D-01  5.2724575111270D-01
41  4.0000000000000D-01  2.1155617202838D-01  4.8999290591226D-01
42  4.1000000000000D-01  2.6539490497245D-01  4.5240257717142D-01
43  4.2000000000000D-01  3.1927568540866D-01  4.1475662801334D-01
44  4.3000000000000D-01  3.7292319590847D-01  3.7733722687187D-01
45  4.4000000000000D-01  4.2606354342469D-01  3.4042517781120D-01
46  4.5000000000000D-01  4.7842587661740D-01  3.0429825515902D-01
47  4.6000000000000D-01  5.2974398685720D-01  2.6922955218763D-01
48  4.7000000000000D-01  5.7975788336109D-01  2.3548585353000D-01
49  4.8000000000000D-01  6.2821533303697D-01  2.0332604091462D-01
50  4.9000000000000D-01  6.7487335579088D-01  1.7299954164172D-01
51  5.0000000000000D-01  7.1949966628417D-01  1.4474482900809D-01
52  5.1000000000000D-01  7.6187405341691D-01  1.1878798361496D-01
53  5.2000000000000D-01  8.0178968915588D-01  9.5341324168486D-02
54  5.3000000000000D-01  8.3905435872048D-01  7.4602116003565D-02
55  5.4000000000000D-01  8.7349160458340D-01  5.6751365133316D-02
56  5.5000000000000D-01  9.0494177723654D-01  4.1952705148643D-02
57  5.6000000000000D-01  9.3326298620915D-01  3.0351383769227D-02
58  5.7000000000000D-01  9.5833194540510D-01  2.2073355280849D-02
59  5.8000000000000D-01  9.8004470744577D-01  1.7224484486372D-02
60  5.9000000000000D-01  9.9831728235795D-01  1.5889867155639D-02
61  6.0000000000000D-01  1.0130861366341D+00  1.8133271281128D-02
62  6.1000000000000D-01  1.0243085694051D+00  2.3996702741739D-02
63  6.2000000000000D-01  1.0319629632031D+00  3.3500098245339D-02
64  6.3000000000000D-01  1.0360489075525D+00  4.6641147667305D-02
65  6.4000000000000D-01  1.0365871943917D+00  6.3395247136712D-02
66  6.5000000000000D-01  1.0336196851194D+00  8.3715583437522D-02
67  6.6000000000000D-01  1.0272090498388D+00  1.0753334950613D-01
68  6.7000000000000D-01  1.0174383801647D+00  1.3475809001772D-01
69  6.8000000000000D-01  1.0044106777393D+00  1.6527817526293D-01
70  6.9000000000000D-01  9.8824822137867D-01  1.9896140073778D-01
71  7.0000000000000D-01  9.6909181652875D-01  2.3565570910188D-01
72  7.1000000000000D-01  9.4709993144944D-01  2.7519003040804D-01
73  7.2000000000000D-01  9.2244772526371D-01  3.1737523577670D-01
74  7.3000000000000D-01  8.9532597369282D-01  3.6200519898711D-01
75  7.4000000000000D-01  8.6593989895388D-01  4.0885795978457D-01
76  7.5000000000000D-01  8.3450791091071D-01  4.5769698206846D-01
77  7.6000000000000D-01  8.0126026714304D-01  5.0827249952887D-01
78  7.7000000000000D-01  7.6643766012781D-01  5.6032294074731D-01
79  7.8000000000000D-01  7.3028974020283D-01  6.1357642527324D-01
80  7.9000000000000D-01  6.9307358340956D-01  6.6775232173417D-01
81  8.0000000000000D-01  6.5505211367999D-01  7.2256285863817D-01
82  8.1000000000000D-01  6.1649248914295D-01  7.7771477818553D-01
83  8.2000000000000D-01  5.7766446257426D-01  8.3291102312412D-01
84  8.3000000000000D-01  5.3883872620046D-01  8.8785244646234D-01
85  8.4000000000000D-01  5.0028525118672D-01  9.4223953369680D-01
86  8.5000000000000D-01  4.6227163219467D-01  9.9577412711949D-01
87  8.6000000000000D-01  4.2506144738330D-01  1.0481611417434D+00
88  8.7000000000000D-01  3.8891264414785D-01  1.0991102624249D+00
89  8.8000000000000D-01  3.5407596074500D-01  1.1483376118691D+00
90  8.9000000000000D-01  3.2079339374088D-01  1.1955673793747D+00
91  9.0000000000000D-01  2.8929672094085D-01  1.2405334004143D+00
92  9.1000000000000D-01  2.5980608911860D-01  1.2829806774473D+00
93  9.2000000000000D-01  2.3252867545925D-01  1.3226668327260D+00
94  9.3000000000000D-01  2.0765743116827D-01  1.3593634842787D+00
95  9.4000000000000D-01  1.8536991517913D-01  1.3928575367369D+00
96  9.5000000000000D-01  1.6582722531965D-01  1.4229523792073D+00
97  9.6000000000000D-01  1.4917303367435D-01  1.4494689829797D+00
98  9.7000000000000D-01  1.3553273221354D-01  1.4722468924901D+00
99  9.8000000000000D-01  1.2501269404023D-01  1.4911451036514D+00
100  9.9000000000000D-01  1.1769965487732D-01  1.5060428243584D+00
101  1.0000000000000D+00  1.1366021862104D-01  1.5168401127451D+00
102  1.0100000000000D+00  1.1294048998472D-01  1.5234583895483D+00
103  1.0200000000000D+00  1.1556583643275D-01  1.5258408217329D+00
104  1.0300000000000D+00  1.2154078075862D-01  1.5239525753621D+00
105  1.0400000000000D+00  1.3084902479988D-01  1.5177809365385D+00
106  1.0500000000000D+00  1.4345360392606D-01  1.5073353000881D+00
107  1.0600000000000D+00  1.5929717110523D-01  1.4926470264774D+00
108  1.0700000000000D+00  1.7830240844606D-01  1.4737691683584D+00
109  1.0800000000000D+00  2.0037256332728D-01  1.4507760689176D+00
110  1.0900000000000D+00  2.2539210536971D-01  1.4237628350645D+00
111  1.1000000000000D+00  2.5322749973546D-01  1.3928446892690D+00
112  1.1100000000000D+00  2.8372809148982D-01  1.3581562046169D+00
113  1.1200000000000D+00  3.1672709496648D-01  1.3198504284599D+00
114  1.1300000000000D+00  3.5204268145061D-01  1.2780979006785D+00
115  1.1400000000000D+00  3.8947915779854D-01  1.2330855732983D+00
116  1.1500000000000D+00  4.2882822812136D-01  1.1850156387054D+00
117  1.1600000000000D+00  4.6987032996235D-01  1.1341042744444D+00
118  1.1700000000000D+00  5.1237603602849D-01  1.0805803129798D+00
119  1.1800000000000D+00  5.5610751209327D-01  1.0246838452796D+00
120  1.1900000000000D+00  6.0082002133850D-01  9.6666476746668D-01
121  1.2000000000000D+00  6.4626346505385D-01  9.0678128018119D-01
122  1.2100000000000D+00  6.9218394946350D-01  8.4529835049826D-01
123  1.2200000000000D+00  7.3832536829220D-01  7.8248614642544D-01
124  1.2300000000000D+00  7.8443099053511D-01  7.1861845423360D-01
125  1.2400000000000D+00  8.3024504298897D-01  6.5397108882857D-01
126  1.2500000000000D+00  8.7551427711067D-01  5.8882030740281D-01
127  1.2600000000000D+00  9.1998950986288D-01  5.2344123658205D-01
128  1.2700000000000D+00  9.6342712856986D-01  4.5810632299568D-01
129  1.2800000000000D+00  1.0055905499453D+00  3.9308381708973D-01
130  1.2900000000000D+00  1.0462516237334D+00  3.2863629979303D-01
131  1.3000000000000D+00  1.0851919721680D+00  2.6501926098284D-01
132  1.3100000000000D+00  1.1222042565058D+00  2.0247973864925D-01
133  1.3200000000000D+00  1.1570933625051D+00  1.4125502713462D-01
134  1.3300000000000D+00  1.1896774978532D+00  8.1571461791994D-02
135  1.3400000000000D+00  1.2197891941967D+00  2.3643287729134D-02
136  1.3500000000000D+00  1.2472762078321D+00 -3.2328380963279D-02
137  1.3600000000000D+00  1.2720023142414D+00 -8.6156506157320D-02
138  1.3700000000000D+00  1.2938479906209D+00 -1.3766896849138D-01
139  1.3800000000000D+00  1.3127109837863D+00 -1.8670930472266D-01
140  1.3900000000000D+00  1.3285067599252D+00 -2.3313733548792D-01
141  1.4000000000000D+00  1.3411688334741D+00 -2.7682968006057D-01
142  1.4100000000000D+00  1.3506489751785D+00 -3.1768015734704D-01
143  1.4200000000000D+00  1.3569172970929D+00 -3.5560007016677D-01
144  1.4300000000000D+00  1.3599622162457D+00 -3.9051837364062D-01
145  1.4400000000000D+00  1.3597902978147D+00 -4.2238172769465D-01
146  1.4500000000000D+00  1.3564259789538D+00 -4.5115443393472D-01
147  1.4600000000000D+00  1.3499111781129D+00 -4.7681826076530D-01
148  1.4700000000000D+00  1.3403047908950D+00 -4.9937215691033D-01
149  1.4800000000000D+00  1.3276820793103D+00 -5.1883185917956D-01
150  1.4900000000000D+00  1.3121339578745D+00 -5.3522939699698D-01
151  1.5000000000000D+00  1.2937661829408D+00 -5.4861249907076D-01
152  1.5100000000000D+00  1.2726984521952D+00 -5.5904390819120D-01
153  1.5200000000000D+00  1.2490634199094D+00 -5.6660060872320D-01
154  1.5300000000000D+00  1.2230056376355D+00 -5.7137297559643D-01
155  1.5400000000000D+00  1.1946804258913D+00 -5.7346384927968D-01
156  1.5500000000000D+00  1.1642526876437D+00 -5.7298754674962D-01
157  1.5600000000000D+00  1.1318956704494D+00 -5.7006881428259D-01
158  1.5700000000000D+00  1.0977896876861D+00 -5.6484173173625D-01
159  1.5800000000000D+00  1.0621208072089D+00 -5.5744857575353D-01
160  1.5900000000000D+00  1.0250795175004D+00 -5.4803865117221D-01
161  1.6000000000000D+00  9.8685938021122D-01 -5.3676709884452D-01
162  1.6100000000000D+00  9.4765567925597D-01 -5.2379368918963D-01
163  1.6200000000000D+00  9.0766407486503D-01 -5.0928160946245D-01
164  1.6300000000000D+00  8.6707927334189D-01 -4.9339625456607D-01
165  1.6400000000000D+00  8.2609371941709D-01 -4.7630402820102D-01
166  1.6500000000000D+00  7.8489632108640D-01 -4.5817116464448D-01
167  1.6600000000000D+00  7.4367122401455D-01 -4.3916257887976D-01
168  1.6700000000000D+00  7.0259659964995D-01 -4.1944074497216D-01
169  1.6800000000000D+00  6.6184359174079D-01 -3.9916464188473D-01
170  1.6900000000000D+00  6.2157518745049D-01 -3.7848871136555D-01
171  1.7000000000000D+00  5.8194506636043D-01 -3.5756185739446D-01
172  1.7100000000000D+00  5.4309710755316D-01 -3.3652663921209D-01
173  1.7200000000000D+00  5.0516489228804D-01 -3.1551850554917D-01
174  1.7300000000000D+00  4.6827132336076D-01 -2.9466515513099D-01
175  1.7400000000000D+00  4.3252851734866D-01 -2.7408601292963D-01
176  1.7500000000000D+00  3.9803728069076D-01 -2.5389168194206D-01
177  1.7600000000000D+00  3.6488663985665D-01 -2.3418347539991D-01
178  1.7700000000000D+00  3.3315362419803D-01 -2.1505306699360D-01
179  1.7800000000000D+00  3.0290308945022D-01 -1.9658221452340D-01
180  1.7900000000000D+00  2.7418764490720D-01 -1.7884257655363D-01
181  1.8000000000000D+00  2.4704768104066D-01 -1.6189561525683D-01
182  1.8100000000000D+00  2.2151149193002D-01 -1.4579258762466D-01
183  1.8200000000000D+00  1.9759549198663D-01 -1.3057462168327D-01
184  1.8300000000000D+00  1.7530452288887D-01 -1.1627287512560D-01
185  1.8400000000000D+00  1.5463225012303D-01 -1.0290877628835D-01
186  1.8500000000000D+00  1.3556163853226D-01 -9.0494338022604D-02
187  1.8600000000000D+00  1.1806551120674D-01 -7.9032549090384D-02
188  1.8700000000000D+00  1.0210717426763D-01 -6.8517827079829D-02
189  1.8800000000000D+00  8.7641115085127D-02 -5.8936540617945D-02
190  1.8900000000000D+00  7.4613753952562D-02 -5.0267582336213D-02
191  1.9000000000000D+00  6.2964253856914D-02 -4.2482997733955D-02
192  1.9100000000000D+00  5.2625372766644D-02 -3.5548655474967D-02
193  1.9200000000000D+00  4.3524355476547D-02 -2.9424957036045D-02
194  1.9300000000000D+00  3.5583855899750D-02 -2.4067577462922D-02
195  1.9400000000000D+00  2.8722880846604D-02 -1.9428229220574D-02
196  1.9500000000000D+00  2.2857748841361D-02 -1.5455443731644D-02
197  1.9600000000000D+00  1.7903055125890D-02 -1.2095362215519D-02
198  1.9700000000000D+00  1.3772633036691D-02 -9.2925276691027D-03
199  1.9800000000000D+00  1.0380507814577D-02 -6.9906739054446D-03
200  1.9900000000000D+00  7.6418291773881D-03 -5.1334998104159D-03
201  2.0000000000000D+00  5.4737797868382D-03 -3.6654260402087D-03
202  2.0100000000000D+00  3.7964508663983D-03 -2.5323263222077D-03
203  2.0200000000000D+00  2.5336719869566D-03 -1.6822218065346D-03
204  2.0300000000000D+00  1.6138028413548D-03 -1.0659453053263D-03
205  2.0400000000000D+00  9.7048414908515D-04 -6.3777851200284D-04
206  2.0500000000000D+00  5.4322384494996D-04 -3.5592070197818D-04
207  2.0600000000000D+00  2.7805668011881D-04 -1.8304740371863D-04
208  2.0700000000000D+00  1.2819069182935D-04 -8.6861996794675D-05
209  2.0800000000000D+00  5.4356117717457D-05 -4.0596260822962D-05
210  2.0900000000000D+00  2.5361978777521D-05 -2.3191265864437D-05
211  2.1000000000000D+00  1.7675958543400D-05 -1.8625007564202D-05
212  2.1100000000000D+00  1.5373760431253D-05 -1.6064084157155D-05
213  2.1200000000000D+00  9.7704685150599D-06 -9.8507428768080D-06
214  2.1300000000000D+00  2.5191266438729D-06 -2.4538186443859D-06
215  2.1400000000000D+00 -1.5131919321474D-06  1.5478996628529D-06
216  2.1500000000000D+00 -1.5454026263138D-06  1.5627870815484D-06
217  2.1600000000000D+00  2.7863716006559D-08 -3.1613703100163D-08
218  2.1700000000000D+00  3.0931584155949D-07 -3.5297305376597D-07
219  2.1800000000000D+00  1.7066552661823D-07 -1.9567177915696D-07
220  2.1900000000000D+00 -2.6686885723227D-08  2.7991353691600D-08
221  2.2000000000000D+00 -4.3687148163849D-08  4.5822597237988D-08
222  2.2100000000000D+00 -7.9885513835221D-09  8.3790356648872D-09
223  2.2200000000000D+00  0.0000000000000D+00  0.0000000000000D+00
224  2.2300000000000D+00  0.0000000000000D+00  0.0000000000000D+00
225  2.2400000000000D+00  0.0000000000000D+00  0.0000000000000D+00
226  2.2500000000000D+00  0.0000000000000D+00  0.0000000000000D+00
227  2.2600000000000D+00  0.0000000000000D+00  0.0000000000000D+00
228  2.2700000000000D+00  0.0000000000000D+00  0.0000000000000D+00
229  2.2800000000000D+00  0.0000000000000D+00  0.0000000000000D+00
230  2.2900000000000D+00  0.0000000000000D+00  0.0000000000000D+00
231  2.3000000000000D+00  0.0000000000000D+00  0.0000000000000D+00
232  2.3100000000000D+00  0.0000000000000D+00  0.0000000000000D+00
233  2.3200000000000D+00  0.0000000000000D+00  0.0000000000000D+00
234  2.3300000000000D+00  0.0000000000000D+00  0.0000000000000D+00
235  2.3400000000000D+00  0.0000000000000D+00  0.0000000000000D+00
236  2.3500000000000D+00  0.0000000000000D+00  0.0000000000000D+00
237  2.3600000000000D+00  0.0000000000000D+00  0.0000000000000D+00
238  2.3700000000000D+00  0.0000000000000D+00  0.0000000000000D+00
239  2.3800000000000D+00  0.0000000000000D+00  0.0000000000000D+00
240  2.3900000000000D+00  0.0000000000000D+00  0.0000000000000D+00
241  2.4000000000000D+00  0.0000000000000D+00  0.0000000000000D+00
242  2.4100000000000D+00  0.0000000000000D+00  0.0000000000000D+00
243  2.4200000000000D+00  0.0000000000000D+00  0.0000000000000D+00
244  2.4300000000000D+00  0.0000000000000D+00  0.0000000000000D+00
245  2.4400000000000D+00  0.0000000000000D+00  0.0000000000000D+00
246  2.4500000000000D+00  0.0000000000000D+00  0.0000000000000D+00
247  2.4600000000000D+00  0.0000000000000D+00  0.0000000000000D+00
248  2.4700000000000D+00  0.0000000000000D+00  0.0000000000000D+00
249  2.4800000000000D+00  0.0000000000000D+00  0.0000000000000D+00
250  2.4900000000000D+00  0.0000000000000D+00  0.0000000000000D+00
251  2.5000000000000D+00  0.0000000000000D+00  0.0000000000000D+00
252  2.5100000000000D+00  0.0000000000000D+00  0.0000000000000D+00
253  2.5200000000000D+00  0.0000000000000D+00  0.0000000000000D+00
254  2.5300000000000D+00  0.0000000000000D+00  0.0000000000000D+00
255  2.5400000000000D+00  0.0000000000000D+00  0.0000000000000D+00
256  2.5500000000000D+00  0.0000000000000D+00  0.0000000000000D+00
257  2.5600000000000D+00  0.0000000000000D+00  0.0000000000000D+00
258  2.5700000000000D+00  0.0000000000000D+00  0.0000000000000D+00
259  2.5800000000000D+00  0.0000000000000D+00  0.0000000000000D+00
260  2.5900000000000D+00  0.0000000000000D+00  0.0000000000000D+00
261  2.6000000000000D+00  0.0000000000000D+00  0.0000000000000D+00
262  2.6100000000000D+00  0.0000000000000D+00  0.0000000000000D+00
263  2.6200000000000D+00  0.0000000000000D+00  0.0000000000000D+00
264  2.6300000000000D+00  0.0000000000000D+00  0.0000000000000D+00
265  2.6400000000000D+00  0.0000000000000D+00  0.0000000000000D+00
266  2.6500000000000D+00  0.0000000000000D+00  0.0000000000000D+00
267  2.6600000000000D+00  0.0000000000000D+00  0.0000000000000D+00
268  2.6700000000000D+00  0.0000000000000D+00  0.0000000000000D+00
269  2.6800000000000D+00  0.0000000000000D+00  0.0000000000000D+00
270  2.6900000000000D+00  0.0000000000000D+00  0.0000000000000D+00
271  2.7000000000000D+00  0.0000000000000D+00  0.0000000000000D+00
272  2.7100000000000D+00  0.0000000000000D+00  0.0000000000000D+00
273  2.7200000000000D+00  0.0000000000000D+00  0.0000000000000D+00
274  2.7300000000000D+00  0.0000000000000D+00  0.0000000000000D+00
275  2.7400000000000D+00  0.0000000000000D+00  0.0000000000000D+00
276  2.7500000000000D+00  0.0000000000000D+00  0.0000000000000D+00
277  2.7600000000000D+00  0.0000000000000D+00  0.0000000000000D+00
278  2.7700000000000D+00  0.0000000000000D+00  0.0000000000000D+00
279  2.7800000000000D+00  0.0000000000000D+00  0.0000000000000D+00
280  2.7900000000000D+00  0.0000000000000D+00  0.0000000000000D+00
281  2.8000000000000D+00  0.0000000000000D+00  0.0000000000000D+00
282  2.8100000000000D+00  0.0000000000000D+00  0.0000000000000D+00
283  2.8200000000000D+00  0.0000000000000D+00  0.0000000000000D+00
284  2.8300000000000D+00  0.0000000000000D+00  0.0000000000000D+00
285  2.8400000000000D+00  0.0000000000000D+00  0.0000000000000D+00
286  2.8500000000000D+00  0.0000000000000D+00  0.0000000000000D+00
287  2.8600000000000D+00  0.0000000000000D+00  0.0000000000000D+00
288  2.8700000000000D+00  0.0000000000000D+00  0.0000000000000D+00
289  2.8800000000000D+00  0.0000000000000D+00  0.0000000000000D+00
290  2.8900000000000D+00  0.0000000000000D+00  0.0000000000000D+00
291  2.9000000000000D+00  0.0000000000000D+00  0.0000000000000D+00
292  2.9100000000000D+00  0.0000000000000D+00  0.0000000000000D+00
293  2.9200000000000D+00  0.0000000000000D+00  0.0000000000000D+00
294  2.9300000000000D+00  0.0000000000000D+00  0.0000000000000D+00
295  2.9400000000000D+00  0.0000000000000D+00  0.0000000000000D+00
296  2.9500000000000D+00  0.0000000000000D+00  0.0000000000000D+00
297  2.9600000000000D+00  0.0000000000000D+00  0.0000000000000D+00
298  2.9700000000000D+00  0.0000000000000D+00  0.0000000000000D+00
299  2.9800000000000D+00  0.0000000000000D+00  0.0000000000000D+00
300  2.9900000000000D+00  0.0000000000000D+00  0.0000000000000D+00
301  3.0000000000000D+00  0.0000000000000D+00  0.0000000000000D+00
302  3.0100000000000D+00  0.0000000000000D+00  0.0000000000000D+00
303  3.0200000000000D+00  0.0000000000000D+00  0.0000000000000D+00
304  3.0300000000000D+00  0.0000000000000D+00  0.0000000000000D+00
305  3.0400000000000D+00  0.0000000000000D+00  0.0000000000000D+00
306  3.0500000000000D+00  0.0000000000000D+00  0.0000000000000D+00
307  3.0600000000000D+00  0.0000000000000D+00  0.0000000000000D+00
308  3.0700000000000D+00  0.0000000000000D+00  0.0000000000000D+00
309  3.0800000000000D+00  0.0000000000000D+00  0.0000000000000D+00
310  3.0900000000000D+00  0.0000000000000D+00  0.0000000000000D+00
311  3.1000000000000D+00  0.0000000000000D+00  0.0000000000000D+00
312  3.1100000000000D+00  0.0000000000000D+00  0.0000000000000D+00
313  3.1200000000000D+00  0.0000000000000D+00  0.0000000000000D+00
314  3.1300000000000D+00  0.0000000000000D+00  0.0000000000000D+00
315  3.1400000000000D+00  0.0000000000000D+00  0.0000000000000D+00
316  3.1500000000000D+00  0.0000000000000D+00  0.0000000000000D+00
317  3.1600000000000D+00  0.0000000000000D+00  0.0000000000000D+00
318  3.1700000000000D+00  0.0000000000000D+00  0.0000000000000D+00
319  3.1800000000000D+00  0.0000000000000D+00  0.0000000000000D+00
320  3.1900000000000D+00  0.0000000000000D+00  0.0000000000000D+00
321  3.2000000000000D+00  0.0000000000000D+00  0.0000000000000D+00
322  3.2100000000000D+00  0.0000000000000D+00  0.0000000000000D+00
323  3.2200000000000D+00  0.0000000000000D+00  0.0000000000000D+00
324  3.2300000000000D+00  0.0000000000000D+00  0.0000000000000D+00
325  3.2400000000000D+00  0.0000000000000D+00  0.0000000000000D+00
326  3.2500000000000D+00  0.0000000000000D+00  0.0000000000000D+00
327  3.2600000000000D+00  0.0000000000000D+00  0.0000000000000D+00
328  3.2700000000000D+00  0.0000000000000D+00  0.0000000000000D+00
329  3.2800000000000D+00  0.0000000000000D+00  0.0000000000000D+00
330  3.2900000000000D+00  0.0000000000000D+00  0.0000000000000D+00
331  3.3000000000000D+00  0.0000000000000D+00  0.0000000000000D+00
332  3.3100000000000D+00  0.0000000000000D+00  0.0000000000000D+00
333  3.3200000000000D+00  0.0000000000000D+00  0.0000000000000D+00
334  3.3300000000000D+00  0.0000000000000D+00  0.0000000000000D+00
335  3.3400000000000D+00  0.0000000000000D+00  0.0000000000000D+00
336  3.3500000000000D+00  0.0000000000000D+00  0.0000000000000D+00
337  3.3600000000000D+00  0.0000000000000D+00  0.0000000000000D+00
338  3.3700000000000D+00  0.0000000000000D+00  0.0000000000000D+00
339  3.3800000000000D+00  0.0000000000000D+00  0.0000000000000D+00
340  3.3900000000000D+00  0.0000000000000D+00  0.0000000000000D+00
341  3.4000000000000D+00  0.0000000000000D+00  0.0000000000000D+00
342  3.4100000000000D+00  0.0000000000000D+00  0.0000000000000D+00
343  3.4200000000000D+00  0.0000000000000D+00  0.0000000000000D+00
344  3.4300000000000D+00  0.0000000000000D+00  0.0000000000000D+00
345  3.4400000000000D+00  0.0000000000000D+00  0.0000000000000D+00
346  3.4500000000000D+00  0.0000000000000D+00  0.0000000000000D+00
347  3.4600000000000D+00  0.0000000000000D+00  0.0000000000000D+00
348  3.4700000000000D+00  0.0000000000000D+00  0.0000000000000D+00
349  3.4800000000000D+00  0.0000000000000D+00  0.0000000000000D+00
350  3.4900000000000D+00  0.0000000000000D+00  0.0000000000000D+00
351  3.5000000000000D+00  0.0000000000000D+00  0.0000000000000D+00
352  3.5100000000000D+00  0.0000000000000D+00  0.0000000000000D+00
353  3.5200000000000D+00  0.0000000000000D+00  0.0000000000000D+00
354  3.5300000000000D+00  0.0000000000000D+00  0.0000000000000D+00
355  3.5400000000000D+00  0.0000000000000D+00  0.0000000000000D+00
356  3.5500000000000D+00  0.0000000000000D+00  0.0000000000000D+00
357  3.5600000000000D+00  0.0000000000000D+00  0.0000000000000D+00
358  3.5700000000000D+00  0.0000000000000D+00  0.0000000000000D+00
359  3.5800000000000D+00  0.0000000000000D+00  0.0000000000000D+00
360  3.5900000000000D+00  0.0000000000000D+00  0.0000000000000D+00
361  3.6000000000000D+00  0.0000000000000D+00  0.0000000000000D+00
362  3.6100000000000D+00  0.0000000000000D+00  0.0000000000000D+00
363  3.6200000000000D+00  0.0000000000000D+00  0.0000000000000D+00
364  3.6300000000000D+00  0.0000000000000D+00  0.0000000000000D+00
365  3.6400000000000D+00  0.0000000000000D+00  0.0000000000000D+00
366  3.6500000000000D+00  0.0000000000000D+00  0.0000000000000D+00
367  3.6600000000000D+00  0.0000000000000D+00  0.0000000000000D+00
368  3.6700000000000D+00  0.0000000000000D+00  0.0000000000000D+00
369  3.6800000000000D+00  0.0000000000000D+00  0.0000000000000D+00
370  3.6900000000000D+00  0.0000000000000D+00  0.0000000000000D+00
371  3.7000000000000D+00  0.0000000000000D+00  0.0000000000000D+00
372  3.7100000000000D+00  0.0000000000000D+00  0.0000000000000D+00
373  3.7200000000000D+00  0.0000000000000D+00  0.0000000000000D+00
374  3.7300000000000D+00  0.0000000000000D+00  0.0000000000000D+00
375  3.7400000000000D+00  0.0000000000000D+00  0.0000000000000D+00
376  3.7500000000000D+00  0.0000000000000D+00  0.0000000000000D+00
377  3.7600000000000D+00  0.0000000000000D+00  0.0000000000000D+00
378  3.7700000000000D+00  0.0000000000000D+00  0.0000000000000D+00
379  3.7800000000000D+00  0.0000000000000D+00  0.0000000000000D+00
380  3.7900000000000D+00  0.0000000000000D+00  0.0000000000000D+00
381  3.8000000000000D+00  0.0000000000000D+00  0.0000000000000D+00
382  3.8100000000000D+00  0.0000000000000D+00  0.0000000000000D+00
383  3.8200000000000D+00  0.0000000000000D+00  0.0000000000000D+00
384  3.8300000000000D+00  0.0000000000000D+00  0.0000000000000D+00
385  3.8400000000000D+00  0.0000000000000D+00  0.0000000000000D+00
386  3.8500000000000D+00  0.0000000000000D+00  0.0000000000000D+00
387  3.8600000000000D+00  0.0000000000000D+00  0.0000000000000D+00
388  3.8700000000000D+00  0.0000000000000D+00  0.0000000000000D+00
389  3.8800000000000D+00  0.0000000000000D+00  0.0000000000000D+00
390  3.8900000000000D+00  0.0000000000000D+00  0.0000000000000D+00
391  3.9000000000000D+00  0.0000000000000D+00  0.0000000000000D+00
392  3.9100000000000D+00  0.0000000000000D+00  0.0000000000000D+00
393  3.9200000000000D+00  0.0000000000000D+00  0.0000000000000D+00
394  3.9300000000000D+00  0.0000000000000D+00  0.0000000000000D+00
395  3.9400000000000D+00  0.0000000000000D+00  0.0000000000000D+00
396  3.9500000000000D+00  0.0000000000000D+00  0.0000000000000D+00
397  3.9600000000000D+00  0.0000000000000D+00  0.0000000000000D+00
398  3.9700000000000D+00  0.0000000000000D+00  0.0000000000000D+00
399  3.9800000000000D+00  0.0000000000000D+00  0.0000000000000D+00
400  3.9900000000000D+00  0.0000000000000D+00  0.0000000000000D+00
401  4.0000000000000D+00  0.0000000000000D+00  0.0000000000000D+00
402  4.0100000000000D+00  0.0000000000000D+00  0.0000000000000D+00
403  4.0200000000000D+00  0.0000000000000D+00  0.0000000000000D+00
404  4.0300000000000D+00  0.0000000000000D+00  0.0000000000000D+00
405  4.0400000000000D+00  0.0000000000000D+00  0.0000000000000D+00
406  4.0500000000000D+00  0.0000000000000D+00  0.0000000000000D+00
407  4.0600000000000D+00  0.0000000000000D+00  0.0000000000000D+00
408  4.0700000000000D+00  0.0000000000000D+00  0.0000000000000D+00
409  4.0800000000000D+00  0.0000000000000D+00  0.0000000000000D+00
410  4.0900000000000D+00  0.0000000000000D+00  0.0000000000000D+00
411  4.1000000000000D+00  0.0000000000000D+00  0.0000000000000D+00
412  4.1100000000000D+00  0.0000000000000D+00  0.0000000000000D+00
413  4.1200000000000D+00  0.0000000000000D+00  0.0000000000000D+00
414  4.1300000000000D+00  0.0000000000000D+00  0.0000000000000D+00
415  4.1400000000000D+00  0.0000000000000D+00  0.0000000000000D+00
416  4.1500000000000D+00  0.0000000000000D+00  0.0000000000000D+00
417  4.1600000000000D+00  0.0000000000000D+00  0.0000000000000D+00
418  4.1700000000000D+00  0.0000000000000D+00  0.0000000000000D+00
419  4.1800000000000D+00  0.0000000000000D+00  0.0000000000000D+00
420  4.1900000000000D+00  0.0000000000000D+00  0.0000000000000D+00
421  4.2000000000000D+00  0.0000000000000D+00  0.0000000000000D+00
422  4.2100000000000D+00  0.0000000000000D+00  0.0000000000000D+00
423  4.2200000000000D+00  0.0000000000000D+00  0.0000000000000D+00
424  4.2300000000000D+00  0.0000000000000D+00  0.0000000000000D+00
425  4.2400000000000D+00  0.0000000000000D+00  0.0000000000000D+00
426  4.2500000000000D+00  0.0000000000000D+00  0.0000000000000D+00
427  4.2600000000000D+00  0.0000000000000D+00  0.0000000000000D+00
428  4.2700000000000D+00  0.0000000000000D+00  0.0000000000000D+00
429  4.2800000000000D+00  0.0000000000000D+00  0.0000000000000D+00
430  4.2900000000000D+00  0.0000000000000D+00  0.0000000000000D+00
431  4.3000000000000D+00  0.0000000000000D+00  0.0000000000000D+00
432  4.3100000000000D+00  0.0000000000000D+00  0.0000000000000D+00
433  4.3200000000000D+00  0.0000000000000D+00  0.0000000000000D+00
434  4.3300000000000D+00  0.0000000000000D+00  0.0000000000000D+00
435  4.3400000000000D+00  0.0000000000000D+00  0.0000000000000D+00
436  4.3500000000000D+00  0.0000000000000D+00  0.0000000000000D+00
437  4.3600000000000D+00  0.0000000000000D+00  0.0000000000000D+00
438  4.3700000000000D+00  0.0000000000000D+00  0.0000000000000D+00
439  4.3800000000000D+00  0.0000000000000D+00  0.0000000000000D+00
440  4.3900000000000D+00  0.0000000000000D+00  0.0000000000000D+00
441  4.4000000000000D+00  0.0000000000000D+00  0.0000000000000D+00
442  4.4100000000000D+00  0.0000000000000D+00  0.0000000000000D+00
443  4.4200000000000D+00  0.0000000000000D+00  0.0000000000000D+00