Ir    ONCVPSP-3.3.0  r_core=   1.60470   1.60470   1.51179   2.26792
77.0000     17.0000      180430    zatom,zion,pspd
8 -116133   3     4   500     0    pspcod,pspxc,lmax,lloc,mmax,r2well
4.99000000  5.00000000  0.00000000    rchrg fchrg qchrg
2     4     4     4    nproj
3     1           extension_switch
4     4     4    nprojso
0                         2.9475114963396D+00  9.0942733166833D+02
1  0.0000000000000D+00  4.5650208266301D-10 -3.9175085397858D-10
2  1.0000000000000D-02  2.5619569313854D-03  7.8998223960782D-02
3  2.0000000000000D-02  5.2403614172035D-03  1.5776212802471D-01
4  3.0000000000000D-02  8.1506724964908D-03  2.3605849129046D-01
5  4.0000000000000D-02  1.1406382341072D-02  3.1365628177688D-01
6  5.0000000000000D-02  1.5118058113403D-02  3.9032772830671D-01
7  6.0000000000000D-02  1.9392413846517D-02  4.6584936557994D-01
8  7.0000000000000D-02  2.4331421811454D-02  5.4000304396502D-01
9  8.0000000000000D-02  3.0031472381033D-02  6.1257689592818D-01
10  9.0000000000000D-02  3.6582590838228D-02  6.8336625150198D-01
11  1.0000000000000D-01  4.4067718919118D-02  7.5217449575891D-01
12  1.1000000000000D-01  5.2562068132125D-02  8.1881386189803D-01
13  1.2000000000000D-01  6.2132551065728D-02  8.8310615426373D-01
14  1.3000000000000D-01  7.2837295995533D-02  9.4488339638892D-01
15  1.4000000000000D-01  8.4725249139381D-02  1.0039883999794D+00
16  1.5000000000000D-01  9.7835867896799D-02  1.0602752516245D+00
17  1.6000000000000D-01  1.1219890735899D-01  1.1136097149175D+00
18  1.7000000000000D-01  1.2783430129940D-01  1.1638695465936D+00
19  1.8000000000000D-01  1.4475213776637D-01  1.2109447262216D+00
20  1.9000000000000D-01  1.6295272830963D-01  1.2547375999217D+00
21  2.0000000000000D-01  1.8242676879691D-01  1.2951629394993D+00
22  2.1000000000000D-01  2.0315558872560D-01  1.3321479192856D+00
23  2.2000000000000D-01  2.2511148492240D-01  1.3656320138379D+00
24  2.3000000000000D-01  2.4825813456172D-01  1.3955668204783D+00
25  2.4000000000000D-01  2.7255108153363D-01  1.4219158114128D+00
26  2.5000000000000D-01  2.9793828936533D-01  1.4446540208824D+00
27  2.6000000000000D-01  3.2436075315666D-01  1.4637676734270D+00
28  2.7000000000000D-01  3.5175316233861D-01  1.4792537599013D+00
29  2.8000000000000D-01  3.8004460551414D-01  1.4911195683465D+00
30  2.9000000000000D-01  4.0915930819739D-01  1.4993821771978D+00
31  3.0000000000000D-01  4.3901739393877D-01  1.5040679185875D+00
32  3.1000000000000D-01  4.6953565911291D-01  1.5052118196790D+00
33  3.2000000000000D-01  5.0062835155639D-01  1.5028570300416D+00
34  3.3000000000000D-01  5.3220794327635D-01  1.4970542430479D+00
35  3.4000000000000D-01  5.6418588760729D-01  1.4878611191361D+00
36  3.5000000000000D-01  5.9647335147260D-01  1.4753417185458D+00
37  3.6000000000000D-01  6.2898191380514D-01  1.4595659507944D+00
38  3.7000000000000D-01  6.6162422169401D-01  1.4406090477256D+00
39  3.8000000000000D-01  6.9431459644766D-01  1.4185510664356D+00
40  3.9000000000000D-01  7.2696958248787D-01  1.3934764277676D+00
41  4.0000000000000D-01  7.5950843280834D-01  1.3654734953759D+00
42  4.1000000000000D-01  7.9185352563483D-01  1.3346341995998D+00
43  4.2000000000000D-01  8.2393070790131D-01  1.3010537095676D+00
44  4.3000000000000D-01  8.5566956219558D-01  1.2648301560785D+00
45  4.4000000000000D-01  8.8700359491677D-01  1.2260644069043D+00
46  4.5000000000000D-01  9.1787034451183D-01  1.1848598952132D+00
47  4.6000000000000D-01  9.4821140980539D-01  1.1413225008688D+00
48  4.7000000000000D-01  9.7797239959159D-01  1.0955604834025D+00
49  4.8000000000000D-01  1.0071028058049D+00  1.0476844645148D+00
50  4.9000000000000D-01  1.0355558037120D+00  9.9780745703919D-01
51  5.0000000000000D-01  1.0632879836581D+00  9.4604493641814D-01
52  5.1000000000000D-01  1.0902590199365D+00  8.9251494990441D-01
53  5.2000000000000D-01  1.1164312833292D+00  8.3733825792212D-01
54  5.3000000000000D-01  1.1417694047551D+00  7.8063850131789D-01
55  5.4000000000000D-01  1.1662397982739D+00  7.2254238760837D-01
56  5.5000000000000D-01  1.1898101523907D+00  6.6317988879799D-01
57  5.6000000000000D-01  1.2124488991971D+00  6.0268444291081D-01
58  5.7000000000000D-01  1.2341246713523D+00  5.4119315105542D-01
59  5.8000000000000D-01  1.2548057572424D+00  4.7884696163539D-01
60  5.9000000000000D-01  1.2744595648556D+00  4.1579083322730D-01
61  6.0000000000000D-01  1.2930521049718D+00  3.5217386768342D-01
62  6.1000000000000D-01  1.3105475041743D+00  2.8814940517612D-01
63  6.2000000000000D-01  1.3269075579658D+00  2.2387507318537D-01
64  6.3000000000000D-01  1.3420913338855D+00  1.5951278184321D-01
65  6.4000000000000D-01  1.3560548340111D+00  9.5228658578265D-02
66  6.5000000000000D-01  1.3687507255673D+00  3.1192915656356D-02
67  6.6000000000000D-01  1.3801281475686D+00 -3.2420355025451D-02
68  6.7000000000000D-01  1.3901326005116D+00 -9.5433464669741D-02
69  6.8000000000000D-01  1.3987059250980D+00 -1.5766549164833D-01
70  6.9000000000000D-01  1.4057863748308D+00 -2.1893272967871D-01
71  7.0000000000000D-01  1.4113087860992D+00 -2.7904922175378D-01
72  7.1000000000000D-01  1.4152048480658D+00 -3.3782738029429D-01
73  7.2000000000000D-01  1.4174034732922D+00 -3.9507869275943D-01
74  7.3000000000000D-01  1.4178312686319D+00 -4.5061451069560D-01
75  7.4000000000000D-01  1.4164131044723D+00 -5.0424691892587D-01
76  7.5000000000000D-01  1.4130727789523D+00 -5.5578968030392D-01
77  7.6000000000000D-01  1.4077337723371D+00 -6.0505925020038D-01
78  7.7000000000000D-01  1.4003200853084D+00 -6.5187585365518D-01
79  7.8000000000000D-01  1.3907571535486D+00 -6.9606461695422D-01
80  7.9000000000000D-01  1.3789728296898D+00 -7.3745674427380D-01
81  8.0000000000000D-01  1.3648984224604D+00 -7.7589072900406D-01
82  8.1000000000000D-01  1.3484697817292D+00 -8.1121358842619D-01
83  8.2000000000000D-01  1.3296284171298D+00 -8.4328210959329D-01
84  8.3000000000000D-01  1.3083226370552D+00 -8.7196409356354D-01
85  8.4000000000000D-01  1.2845086940722D+00 -8.9713958456885D-01
86  8.5000000000000D-01  1.2581519222148D+00 -9.1870207028427D-01
87  8.6000000000000D-01  1.2292278511969D+00 -9.3655963910024D-01
88  8.7000000000000D-01  1.1977232823428D+00 -9.5063608020050D-01
89  8.8000000000000D-01  1.1636373109731D+00 -9.6087191231705D-01
90  8.9000000000000D-01  1.1269822801140D+00 -9.6722532727478D-01
91  9.0000000000000D-01  1.0877846507180D+00 -9.6967303485247D-01
92  9.1000000000000D-01  1.0460857740961D+00 -9.6821099607446D-01
93  9.2000000000000D-01  1.0019425529622D+00 -9.6285503280477D-01
94  9.3000000000000D-01  9.5542797837611D-01 -9.5364130243831D-01
95  9.4000000000000D-01  9.0663153093654D-01 -9.4062662756474D-01
96  9.5000000000000D-01  8.5565943580556D-01 -9.2388867171133D-01
97  9.6000000000000D-01  8.0263476253646D-01 -9.0352595363709D-01
98  9.7000000000000D-01  7.4769736222164D-01 -8.7965769415664D-01
99  9.8000000000000D-01  6.9100363611826D-01 -8.5242349105539D-01
100  9.9000000000000D-01  6.3272613169341D-01 -8.2198281936670D-01
101  1.0000000000000D+00  5.7305296390778D-01 -7.8851435606738D-01
102  1.0100000000000D+00  5.1218706147422D-01 -7.5221513006169D-01
103  1.0200000000000D+00  4.5034523982356D-01 -7.1329950020174D-01
104  1.0300000000000D+00  3.8775710450985D-01 -6.7199796596464D-01
105  1.0400000000000D+00  3.2466379087249D-01 -6.2855581734931D-01
106  1.0500000000000D+00  2.6131654759626D-01 -5.8323163224787D-01
107  1.0600000000000D+00  1.9797517397726D-01 -5.3629563154808D-01
108  1.0700000000000D+00  1.3490632243796D-01 -4.8802790381669D-01
109  1.0800000000000D+00  7.2381679660096D-02 -4.3871651308426D-01
110  1.0900000000000D+00  1.0676041448368D-02 -3.8865550483661D-01
111  1.1000000000000D+00 -4.9934702227898D-02 -3.3814282652567D-01
112  1.1100000000000D+00 -1.0917565392594D-01 -2.8747818038629D-01
113  1.1200000000000D+00 -1.6677504804576D-01 -2.3696082724755D-01
114  1.1300000000000D+00 -2.2246642257931D-01 -1.8688736097693D-01
115  1.1400000000000D+00 -2.7599080238893D-01 -1.3754947380681D-01
116  1.1500000000000D+00 -3.2709887242461D-01 -8.9231733367229D-02
117  1.1600000000000D+00 -3.7555311899464D-01 -4.2209392460422D-02
118  1.1700000000000D+00 -4.2112991718745D-01  3.2537474374384D-03
119  1.1800000000000D+00 -4.6362154256277D-01  4.6907398029118D-02
120  1.1900000000000D+00 -5.0283808565290D-01  8.8516750959905D-02
121  1.2000000000000D+00 -5.3860924853640D-01  1.2786432977426D-01
122  1.2100000000000D+00 -5.7078600373402D-01  1.6475170832932D-01
123  1.2200000000000D+00 -5.9924209626582D-01  1.9900107752114D-01
124  1.2300000000000D+00 -6.2387537172593D-01  2.3045664413932D-01
125  1.2400000000000D+00 -6.4460891489412D-01  2.5898584725507D-01
126  1.2500000000000D+00 -6.6139198390792D-01  2.8448037804449D-01
127  1.2600000000000D+00 -6.7420072852294D-01  3.0685699229583D-01
128  1.2700000000000D+00 -6.8303868289426D-01  3.2605810664575D-01
129  1.2800000000000D+00 -6.8793702396726D-01  3.4205217022155D-01
130  1.2900000000000D+00 -6.8895459087216D-01  3.5483380744108D-01
131  1.3000000000000D+00 -6.8617766323678D-01  3.6442373008444D-01
132  1.3100000000000D+00 -6.7971949620009D-01  3.7086841663759D-01
133  1.3200000000000D+00 -6.6971961576106D-01  3.7423956240984D-01
134  1.3300000000000D+00 -6.5634288005440D-01  3.7463330574904D-01
135  1.3400000000000D+00 -6.3977831124855D-01  3.7216923485127D-01
136  1.3500000000000D+00 -6.2023771094637D-01  3.6698918731797D-01
137  1.3600000000000D+00 -5.9795407031579D-01  3.5925585305920D-01
138  1.3700000000000D+00 -5.7317978849017D-01  3.4915119331244D-01
139  1.3800000000000D+00 -5.4618471885677D-01  3.3687469420698D-01
140  1.3900000000000D+00 -5.1725405949508D-01  3.2264147017655D-01
141  1.4000000000000D+00 -4.8668611005448D-01  3.0668023813972D-01
142  1.4100000000000D+00 -4.5478991799372D-01  2.8923118394561D-01
143  1.4200000000000D+00 -4.2188283609137D-01  2.7054374165035D-01
144  1.4300000000000D+00 -3.8828801888310D-01  2.5087431151771D-01
145  1.4400000000000D+00 -3.5433188186167D-01  2.3048393909444D-01
146  1.4500000000000D+00 -3.2034155162898D-01  2.0963598174796D-01
147  1.4600000000000D+00 -2.8664233559458D-01  1.8859378918293D-01
148  1.4700000000000D+00 -2.5355523210681D-01  1.6761841820997D-01
149  1.4800000000000D+00 -2.2139453078875D-01  1.4696642629091D-01
150  1.4900000000000D+00 -1.9046539359290D-01  1.2688765295190D-01
151  1.5000000000000D+00 -1.6106147874778D-01  1.0762304740822D-01
152  1.5100000000000D+00 -1.3346436570485D-01  8.9404017389256D-02
153  1.5200000000000D+00 -1.0793912995671D-01  7.2448555802134D-02
154  1.5300000000000D+00 -8.4728111430612D-02  5.6955872813789D-02
155  1.5400000000000D+00 -6.4045709450396D-02  4.3101843902306D-02
156  1.5500000000000D+00 -4.6075366973922D-02  3.1035764057041D-02
157  1.5600000000000D+00 -3.0964928840174D-02  2.0877013516002D-02
158  1.5700000000000D+00 -1.8764482257264D-02  1.2672535755880D-02
159  1.5800000000000D+00 -9.6133797576301D-03  6.5237504177917D-03
160  1.5900000000000D+00 -3.7960741705523D-03  2.6269716962541D-03
161  1.6000000000000D+00 -9.5676834620946D-04  7.2917991589159D-04
162  1.6100000000000D+00 -1.0221942492907D-05  6.9807407910919D-05
163  1.6200000000000D+00  5.4631201675496D-05 -2.0852289404435D-05
164  1.6300000000000D+00 -4.2181000427694D-05  1.9873975246308D-05
165  1.6400000000000D+00 -2.3754386751442D-05  1.2054679824412D-05
166  1.6500000000000D+00  6.3722392597923D-06 -2.4315573702106D-06
167  1.6600000000000D+00  3.4349390620917D-06 -1.4334142833094D-06
168  1.6700000000000D+00  9.2530399924578D-07 -8.3603078014039D-07
169  1.6800000000000D+00  4.4753968116848D-07 -4.0436110629160D-07
170  1.6900000000000D+00  0.0000000000000D+00  0.0000000000000D+00
171  1.7000000000000D+00  0.0000000000000D+00  0.0000000000000D+00
172  1.7100000000000D+00  0.0000000000000D+00  0.0000000000000D+00
173  1.7200000000000D+00  0.0000000000000D+00  0.0000000000000D+00
174  1.7300000000000D+00  0.0000000000000D+00  0.0000000000000D+00
175  1.7400000000000D+00  0.0000000000000D+00  0.0000000000000D+00
176  1.7500000000000D+00  0.0000000000000D+00  0.0000000000000D+00
177  1.7600000000000D+00  0.0000000000000D+00  0.0000000000000D+00
178  1.7700000000000D+00  0.0000000000000D+00  0.0000000000000D+00
179  1.7800000000000D+00  0.0000000000000D+00  0.0000000000000D+00
180  1.7900000000000D+00  0.0000000000000D+00  0.0000000000000D+00
181  1.8000000000000D+00  0.0000000000000D+00  0.0000000000000D+00
182  1.8100000000000D+00  0.0000000000000D+00  0.0000000000000D+00
183  1.8200000000000D+00  0.0000000000000D+00  0.0000000000000D+00
184  1.8300000000000D+00  0.0000000000000D+00  0.0000000000000D+00
185  1.8400000000000D+00  0.0000000000000D+00  0.0000000000000D+00
186  1.8500000000000D+00  0.0000000000000D+00  0.0000000000000D+00
187  1.8600000000000D+00  0.0000000000000D+00  0.0000000000000D+00
188  1.8700000000000D+00  0.0000000000000D+00  0.0000000000000D+00
189  1.8800000000000D+00  0.0000000000000D+00  0.0000000000000D+00
190  1.8900000000000D+00  0.0000000000000D+00  0.0000000000000D+00
191  1.9000000000000D+00  0.0000000000000D+00  0.0000000000000D+00
192  1.9100000000000D+00  0.0000000000000D+00  0.0000000000000D+00
193  1.9200000000000D+00  0.0000000000000D+00  0.0000000000000D+00
194  1.9300000000000D+00  0.0000000000000D+00  0.0000000000000D+00
195  1.9400000000000D+00  0.0000000000000D+00  0.0000000000000D+00
196  1.9500000000000D+00  0.0000000000000D+00  0.0000000000000D+00
197  1.9600000000000D+00  0.0000000000000D+00  0.0000000000000D+00
198  1.9700000000000D+00  0.0000000000000D+00  0.0000000000000D+00
199  1.9800000000000D+00  0.0000000000000D+00  0.0000000000000D+00
200  1.9900000000000D+00  0.0000000000000D+00  0.0000000000000D+00
201  2.0000000000000D+00  0.0000000000000D+00  0.0000000000000D+00
202  2.0100000000000D+00  0.0000000000000D+00  0.0000000000000D+00
203  2.0200000000000D+00  0.0000000000000D+00  0.0000000000000D+00
204  2.0300000000000D+00  0.0000000000000D+00  0.0000000000000D+00
205  2.0400000000000D+00  0.0000000000000D+00  0.0000000000000D+00
206  2.0500000000000D+00  0.0000000000000D+00  0.0000000000000D+00
207  2.0600000000000D+00  0.0000000000000D+00  0.0000000000000D+00
208  2.0700000000000D+00  0.0000000000000D+00  0.0000000000000D+00
209  2.0800000000000D+00  0.0000000000000D+00  0.0000000000000D+00
210  2.0900000000000D+00  0.0000000000000D+00  0.0000000000000D+00
211  2.1000000000000D+00  0.0000000000000D+00  0.0000000000000D+00
212  2.1100000000000D+00  0.0000000000000D+00  0.0000000000000D+00
213  2.1200000000000D+00  0.0000000000000D+00  0.0000000000000D+00
214  2.1300000000000D+00  0.0000000000000D+00  0.0000000000000D+00
215  2.1400000000000D+00  0.0000000000000D+00  0.0000000000000D+00
216  2.1500000000000D+00  0.0000000000000D+00  0.0000000000000D+00
217  2.1600000000000D+00  0.0000000000000D+00  0.0000000000000D+00
218  2.1700000000000D+00  0.0000000000000D+00  0.0000000000000D+00
219  2.1800000000000D+00  0.0000000000000D+00  0.0000000000000D+00
220  2.1900000000000D+00  0.0000000000000D+00  0.0000000000000D+00
221  2.2000000000000D+00  0.0000000000000D+00  0.0000000000000D+00
222  2.2100000000000D+00  0.0000000000000D+00  0.0000000000000D+00
223  2.2200000000000D+00  0.0000000000000D+00  0.0000000000000D+00
224  2.2300000000000D+00  0.0000000000000D+00  0.0000000000000D+00
225  2.2400000000000D+00  0.0000000000000D+00  0.0000000000000D+00
226  2.2500000000000D+00  0.0000000000000D+00  0.0000000000000D+00
227  2.2600000000000D+00  0.0000000000000D+00  0.0000000000000D+00
228  2.2700000000000D+00  0.0000000000000D+00  0.0000000000000D+00
229  2.2800000000000D+00  0.0000000000000D+00  0.0000000000000D+00
230  2.2900000000000D+00  0.0000000000000D+00  0.0000000000000D+00
231  2.3000000000000D+00  0.0000000000000D+00  0.0000000000000D+00
232  2.3100000000000D+00  0.0000000000000D+00  0.0000000000000D+00
233  2.3200000000000D+00  0.0000000000000D+00  0.0000000000000D+00
234  2.3300000000000D+00  0.0000000000000D+00  0.0000000000000D+00
235  2.3400000000000D+00  0.0000000000000D+00  0.0000000000000D+00
236  2.3500000000000D+00  0.0000000000000D+00  0.0000000000000D+00
237  2.3600000000000D+00  0.0000000000000D+00  0.0000000000000D+00
238  2.3700000000000D+00  0.0000000000000D+00  0.0000000000000D+00
239  2.3800000000000D+00  0.0000000000000D+00  0.0000000000000D+00
240  2.3900000000000D+00  0.0000000000000D+00  0.0000000000000D+00
241  2.4000000000000D+00  0.0000000000000D+00  0.0000000000000D+00
242  2.4100000000000D+00  0.0000000000000D+00  0.0000000000000D+00
243  2.4200000000000D+00  0.0000000000000D+00  0.0000000000000D+00
244  2.4300000000000D+00  0.0000000000000D+00  0.0000000000000D+00
245  2.4400000000000D+00  0.0000000000000D+00  0.0000000000000D+00
246  2.4500000000000D+00  0.0000000000000D+00  0.0000000000000D+00
247  2.4600000000000D+00  0.0000000000000D+00  0.0000000000000D+00
248  2.4700000000000D+00  0.0000000000000D+00  0.0000000000000D+00
249  2.4800000000000D+00  0.0000000000000D+00  0.0000000000000D+00
250  2.4900000000000D+00  0.0000000000000D+00  0.0000000000000D+00
251  2.5000000000000D+00  0.0000000000000D+00  0.0000000000000D+00
252  2.5100000000000D+00  0.0000000000000D+00  0.0000000000000D+00
253  2.5200000000000D+00  0.0000000000000D+00  0.0000000000000D+00
254  2.5300000000000D+00  0.0000000000000D+00  0.0000000000000D+00
255  2.5400000000000D+00  0.0000000000000D+00  0.0000000000000D+00
256  2.5500000000000D+00  0.0000000000000D+00  0.0000000000000D+00
257  2.5600000000000D+00  0.0000000000000D+00  0.0000000000000D+00
258  2.5700000000000D+00  0.0000000000000D+00  0.0000000000000D+00
259  2.5800000000000D+00  0.0000000000000D+00  0.0000000000000D+00
260  2.5900000000000D+00  0.0000000000000D+00  0.0000000000000D+00
261  2.6000000000000D+00  0.0000000000000D+00  0.0000000000000D+00
262  2.6100000000000D+00  0.0000000000000D+00  0.0000000000000D+00
263  2.6200000000000D+00  0.0000000000000D+00  0.0000000000000D+00
264  2.6300000000000D+00  0.0000000000000D+00  0.0000000000000D+00
265  2.6400000000000D+00  0.0000000000000D+00  0.0000000000000D+00
266  2.6500000000000D+00  0.0000000000000D+00  0.0000000000000D+00
267  2.6600000000000D+00  0.0000000000000D+00  0.0000000000000D+00
268  2.6700000000000D+00  0.0000000000000D+00  0.0000000000000D+00
269  2.6800000000000D+00  0.0000000000000D+00  0.0000000000000D+00
270  2.6900000000000D+00  0.0000000000000D+00  0.0000000000000D+00
271  2.7000000000000D+00  0.0000000000000D+00  0.0000000000000D+00
272  2.7100000000000D+00  0.0000000000000D+00  0.0000000000000D+00
273  2.7200000000000D+00  0.0000000000000D+00  0.0000000000000D+00
274  2.7300000000000D+00  0.0000000000000D+00  0.0000000000000D+00
275  2.7400000000000D+00  0.0000000000000D+00  0.0000000000000D+00
276  2.7500000000000D+00  0.0000000000000D+00  0.0000000000000D+00
277  2.7600000000000D+00  0.0000000000000D+00  0.0000000000000D+00
278  2.7700000000000D+00  0.0000000000000D+00  0.0000000000000D+00
279  2.7800000000000D+00  0.0000000000000D+00  0.0000000000000D+00
280  2.7900000000000D+00  0.0000000000000D+00  0.0000000000000D+00
281  2.8000000000000D+00  0.0000000000000D+00  0.0000000000000D+00
282  2.8100000000000D+00  0.0000000000000D+00  0.0000000000000D+00
283  2.8200000000000D+00  0.0000000000000D+00  0.0000000000000D+00
284  2.8300000000000D+00  0.0000000000000D+00  0.0000000000000D+00
285  2.8400000000000D+00  0.0000000000000D+00  0.0000000000000D+00
286  2.8500000000000D+00  0.0000000000000D+00  0.0000000000000D+00
287  2.8600000000000D+00  0.0000000000000D+00  0.0000000000000D+00
288  2.8700000000000D+00  0.0000000000000D+00  0.0000000000000D+00
289  2.8800000000000D+00  0.0000000000000D+00  0.0000000000000D+00
290  2.8900000000000D+00  0.0000000000000D+00  0.0000000000000D+00
291  2.9000000000000D+00  0.0000000000000D+00  0.0000000000000D+00
292  2.9100000000000D+00  0.0000000000000D+00  0.0000000000000D+00
293  2.9200000000000D+00  0.0000000000000D+00  0.0000000000000D+00
294  2.9300000000000D+00  0.0000000000000D+00  0.0000000000000D+00
295  2.9400000000000D+00  0.0000000000000D+00  0.0000000000000D+00
296  2.9500000000000D+00  0.0000000000000D+00  0.0000000000000D+00
297  2.9600000000000D+00  0.0000000000000D+00  0.0000000000000D+00
298  2.9700000000000D+00  0.0000000000000D+00  0.0000000000000D+00
299  2.9800000000000D+00  0.0000000000000D+00  0.0000000000000D+00
300  2.9900000000000D+00  0.0000000000000D+00  0.0000000000000D+00
301  3.0000000000000D+00  0.0000000000000D+00  0.0000000000000D+00
302  3.0100000000000D+00  0.0000000000000D+00  0.0000000000000D+00
303  3.0200000000000D+00  0.0000000000000D+00  0.0000000000000D+00
304  3.0300000000000D+00  0.0000000000000D+00  0.0000000000000D+00
305  3.0400000000000D+00  0.0000000000000D+00  0.0000000000000D+00
306  3.0500000000000D+00  0.0000000000000D+00  0.0000000000000D+00
307  3.0600000000000D+00  0.0000000000000D+00  0.0000000000000D+00
308  3.0700000000000D+00  0.0000000000000D+00  0.0000000000000D+00
309  3.0800000000000D+00  0.0000000000000D+00  0.0000000000000D+00
310  3.0900000000000D+00  0.0000000000000D+00  0.0000000000000D+00
311  3.1000000000000D+00  0.0000000000000D+00  0.0000000000000D+00
312  3.1100000000000D+00  0.0000000000000D+00  0.0000000000000D+00
313  3.1200000000000D+00  0.0000000000000D+00  0.0000000000000D+00
314  3.1300000000000D+00  0.0000000000000D+00  0.0000000000000D+00
315  3.1400000000000D+00  0.0000000000000D+00  0.0000000000000D+00
316  3.1500000000000D+00  0.0000000000000D+00  0.0000000000000D+00
317  3.1600000000000D+00  0.0000000000000D+00  0.0000000000000D+00
318  3.1700000000000D+00  0.0000000000000D+00  0.0000000000000D+00
319  3.1800000000000D+00  0.0000000000000D+00  0.0000000000000D+00
320  3.1900000000000D+00  0.0000000000000D+00  0.0000000000000D+00
321  3.2000000000000D+00  0.0000000000000D+00  0.0000000000000D+00
322  3.2100000000000D+00  0.0000000000000D+00  0.0000000000000D+00
323  3.2200000000000D+00  0.0000000000000D+00  0.0000000000000D+00
324  3.2300000000000D+00  0.0000000000000D+00  0.0000000000000D+00
325  3.2400000000000D+00  0.0000000000000D+00  0.0000000000000D+00
326  3.2500000000000D+00  0.0000000000000D+00  0.0000000000000D+00
327  3.2600000000000D+00  0.0000000000000D+00  0.0000000000000D+00
328  3.2700000000000D+00  0.0000000000000D+00  0.0000000000000D+00
329  3.2800000000000D+00  0.0000000000000D+00  0.0000000000000D+00
330  3.2900000000000D+00  0.0000000000000D+00  0.0000000000000D+00
331  3.3000000000000D+00  0.0000000000000D+00  0.0000000000000D+00
332  3.3100000000000D+00  0.0000000000000D+00  0.0000000000000D+00
333  3.3200000000000D+00  0.0000000000000D+00  0.0000000000000D+00
334  3.3300000000000D+00  0.0000000000000D+00  0.0000000000000D+00
335  3.3400000000000D+00  0.0000000000000D+00  0.0000000000000D+00
336  3.3500000000000D+00  0.0000000000000D+00  0.0000000000000D+00
337  3.3600000000000D+00  0.0000000000000D+00  0.0000000000000D+00
338  3.3700000000000D+00  0.0000000000000D+00  0.0000000000000D+00
339  3.3800000000000D+00  0.0000000000000D+00  0.0000000000000D+00
340  3.3900000000000D+00  0.0000000000000D+00  0.0000000000000D+00
341  3.4000000000000D+00  0.0000000000000D+00  0.0000000000000D+00
342  3.4100000000000D+00  0.0000000000000D+00  0.0000000000000D+00
343  3.4200000000000D+00  0.0000000000000D+00  0.0000000000000D+00
344  3.4300000000000D+00  0.0000000000000D+00  0.0000000000000D+00
345  3.4400000000000D+00  0.0000000000000D+00  0.0000000000000D+00
346  3.4500000000000D+00  0.0000000000000D+00  0.0000000000000D+00
347  3.4600000000000D+00  0.0000000000000D+00  0.0000000000000D+00
348  3.4700000000000D+00  0.0000000000000D+00  0.0000000000000D+00
349  3.4800000000000D+00  0.0000000000000D+00  0.0000000000000D+00
350  3.4900000000000D+00  0.0000000000000D+00  0.0000000000000D+00
351  3.5000000000000D+00  0.0000000000000D+00  0.0000000000000D+00
352  3.5100000000000D+00  0.0000000000000D+00  0.0000000000000D+00
353  3.5200000000000D+00  0.0000000000000D+00  0.0000000000000D+00
354  3.5300000000000D+00  0.0000000000000D+00  0.0000000000000D+00
355  3.5400000000000D+00  0.0000000000000D+00  0.0000000000000D+00
356  3.5500000000000D+00  0.0000000000000D+00  0.0000000000000D+00
357  3.5600000000000D+00  0.0000000000000D+00  0.0000000000000D+00
358  3.5700000000000D+00  0.0000000000000D+00  0.0000000000000D+00
359  3.5800000000000D+00  0.0000000000000D+00  0.0000000000000D+00
360  3.5900000000000D+00  0.0000000000000D+00  0.0000000000000D+00
361  3.6000000000000D+00  0.0000000000000D+00  0.0000000000000D+00
362  3.6100000000000D+00  0.0000000000000D+00  0.0000000000000D+00
363  3.6200000000000D+00  0.0000000000000D+00  0.0000000000000D+00
364  3.6300000000000D+00  0.0000000000000D+00  0.0000000000000D+00
365  3.6400000000000D+00  0.0000000000000D+00  0.0000000000000D+00
366  3.6500000000000D+00  0.0000000000000D+00  0.0000000000000D+00
367  3.6600000000000D+00  0.0000000000000D+00  0.0000000000000D+00
368  3.6700000000000D+00  0.0000000000000D+00  0.0000000000000D+00
369  3.6800000000000D+00  0.0000000000000D+00  0.0000000000000D+00
370  3.6900000000000D+00  0.0000000000000D+00  0.0000000000000D+00
371  3.7000000000000D+00  0.0000000000000D+00  0.0000000000000D+00
372  3.7100000000000D+00  0.0000000000000D+00  0.0000000000000D+00
373  3.7200000000000D+00  0.0000000000000D+00  0.0000000000000D+00
374  3.7300000000000D+00  0.0000000000000D+00  0.0000000000000D+00
375  3.7400000000000D+00  0.0000000000000D+00  0.0000000000000D+00
376  3.7500000000000D+00  0.0000000000000D+00  0.0000000000000D+00
377  3.7600000000000D+00  0.0000000000000D+00  0.0000000000000D+00
378  3.7700000000000D+00  0.0000000000000D+00  0.0000000000000D+00
379  3.7800000000000D+00  0.0000000000000D+00  0.0000000000000D+00
380  3.7900000000000D+00  0.0000000000000D+00  0.0000000000000D+00
381  3.8000000000000D+00  0.0000000000000D+00  0.0000000000000D+00
382  3.8100000000000D+00  0.0000000000000D+00  0.0000000000000D+00
383  3.8200000000000D+00  0.0000000000000D+00  0.0000000000000D+00
384  3.8300000000000D+00  0.0000000000000D+00  0.0000000000000D+00
385  3.8400000000000D+00  0.0000000000000D+00  0.0000000000000D+00
386  3.8500000000000D+00  0.0000000000000D+00  0.0000000000000D+00
387  3.8600000000000D+00  0.0000000000000D+00  0.0000000000000D+00
388  3.8700000000000D+00  0.0000000000000D+00  0.0000000000000D+00
389  3.8800000000000D+00  0.0000000000000D+00  0.0000000000000D+00
390  3.8900000000000D+00  0.0000000000000D+00  0.0000000000000D+00
391  3.9000000000000D+00  0.0000000000000D+00  0.0000000000000D+00
392  3.9100000000000D+00  0.0000000000000D+00  0.0000000000000D+00
393  3.9200000000000D+00  0.0000000000000D+00  0.0000000000000D+00
394  3.9300000000000D+00  0.0000000000000D+00  0.0000000000000D+00
395  3.9400000000000D+00  0.0000000000000D+00  0.0000000000000D+00
396  3.9500000000000D+00  0.0000000000000D+00  0.0000000000000D+00
397  3.9600000000000D+00  0.0000000000000D+00  0.0000000000000D+00
398  3.9700000000000D+00  0.0000000000000D+00  0.0000000000000D+00
399  3.9800000000000D+00  0.0000000000000D+00  0.0000000000000D+00
400  3.9900000000000D+00  0.0000000000000D+00  0.0000000000000D+00
401  4.0000000000000D+00  0.0000000000000D+00  0.0000000000000D+00
402  4.0100000000000D+00  0.0000000000000D+00  0.0000000000000D+00
403  4.0200000000000D+00  0.0000000000000D+00  0.0000000000000D+00
404  4.0300000000000D+00  0.0000000000000D+00  0.0000000000000D+00
405  4.0400000000000D+00  0.0000000000000D+00  0.0000000000000D+00
406  4.0500000000000D+00  0.0000000000000D+00  0.0000000000000D+00
407  4.0600000000000D+00  0.0000000000000D+00  0.0000000000000D+00
408  4.0700000000000D+00  0.0000000000000D+00  0.0000000000000D+00
409  4.0800000000000D+00  0.0000000000000D+00  0.0000000000000D+00
410  4.0900000000000D+00  0.0000000000000D+00  0.0000000000000D+00
411  4.1000000000000D+00  0.0000000000000D+00  0.0000000000000D+00
412  4.1100000000000D+00  0.0000000000000D+00  0.0000000000000D+00
413  4.1200000000000D+00  0.0000000000000D+00  0.0000000000000D+00
414  4.1300000000000D+00  0.0000000000000D+00  0.0000000000000D+00
415  4.1400000000000D+00  0.0000000000000D+00  0.0000000000000D+00
416  4.1500000000000D+00  0.0000000000000D+00  0.0000000000000D+00
417  4.1600000000000D+00  0.0000000000000D+00  0.0000000000000D+00
418  4.1700000000000D+00  0.0000000000000D+00  0.0000000000000D+00
419  4.1800000000000D+00  0.0000000000000D+00  0.0000000000000D+00
420  4.1900000000000D+00  0.0000000000000D+00  0.0000000000000D+00
421  4.2000000000000D+00  0.0000000000000D+00  0.0000000000000D+00
422  4.2100000000000D+00  0.0000000000000D+00  0.0000000000000D+00
423  4.2200000000000D+00  0.0000000000000D+00  0.0000000000000D+00
424  4.2300000000000D+00  0.0000000000000D+00  0.0000000000000D+00
425  4.2400000000000D+00  0.0000000000000D+00  0.0000000000000D+00
426  4.2500000000000D+00  0.0000000000000D+00  0.0000000000000D+00
427  4.2600000000000D+00  0.0000000000000D+00  0.0000000000000D+00
428  4.2700000000000D+00  0.0000000000000D+00  0.0000000000000D+00
429  4.2800000000000D+00  0.0000000000000D+00  0.0000000000000D+00
430  4.2900000000000D+00  0.0000000000000D+00  0.0000000000000D+00
431  4.3000000000000D+00  0.0000000000000D+00  0.0000000000000D+00
432  4.3100000000000D+00  0.0000000000000D+00  0.0000000000000D+00
433  4.3200000000000D+00  0.0000000000000D+00  0.0000000000000D+00
434  4.3300000000000D+00  0.0000000000000D+00  0.0000000000000D+00
435  4.3400000000000D+00  0.0000000000000D+00  0.0000000000000D+00
436  4.3500000000000D+00  0.0000000000000D+00  0.0000000000000D+00
437  4.3600000000000D+00  0.0000000000000D+00  0.0000000000000D+00
438  4.3700000000000D+00  0.0000000000000D+00  0.0000000000000D+00
439  4.3800000000000D+00  0.0000000000000D+00  0.0000000000000D+00
440  4.3900000000000D+00  0.0000000000000D+00  0.0000000000000D+00
441  4.4000000000000D+00  0.0000000000000D+00  0.0000000000000D+00
442  4.4100000000000D+00  0.0000000000000D+00  0.0000000000000D+00
443  4.4200000000000D+00  0.0000000000000D+00  0.0000000000000D+00