Li    ONCVPSP-3.3.0  r_core=   1.40824   1.10935
3.0000      3.0000      180429    zatom,zion,pspd
8 -116133   1     4   400     0    pspcod,pspxc,lmax,lloc,mmax,r2well
3.99000000  0.00000000  0.00000000    rchrg fchrg qchrg
2     2     0     0    nproj
3     1           extension_switch
3     0     0    nprojso
0                        -4.8558554419579D+00 -1.4824239066987D+00
1  0.0000000000000D+00 -7.3583672488553D-10  2.2088614826110D-09
2  1.0000000000000D-02  9.4634330303350D-02 -4.4436155099281D-02
3  2.0000000000000D-02  1.8895559276656D-01 -8.8477234007992D-02
4  3.0000000000000D-02  2.8265240479300D-01 -1.3173162155255D-01
5  4.0000000000000D-02  3.7541673920504D-01 -1.7381458385246D-01
6  5.0000000000000D-02  4.6694556447461D-01 -2.1435160768826D-01
7  6.0000000000000D-02  5.5694244051033D-01 -2.5298161993219D-01
8  7.0000000000000D-02  6.4511905606469D-01 -2.8936004969899D-01
9  8.0000000000000D-02  7.3119669456025D-01 -3.2316169808284D-01
10  9.0000000000000D-02  8.1490761603335D-01 -3.5408338304470D-01
11  1.0000000000000D-01  8.9599634394418D-01 -3.8184633016179D-01
12  1.1000000000000D-01  9.7422084678740D-01 -4.0619828350000D-01
13  1.2000000000000D-01  1.0493536057412D+00 -4.2691531476814D-01
14  1.3000000000000D-01  1.1211825609963D+00 -4.4380331310128D-01
15  1.4000000000000D-01  1.1895119308869D+00 -4.5669914223685D-01
16  1.5000000000000D-01  1.2541628994891D+00 -4.6547145642513D-01
17  1.6000000000000D-01  1.3149741699222D+00 -4.7002117108737D-01
18  1.7000000000000D-01  1.3718023821830D+00 -4.7028158893003D-01
19  1.8000000000000D-01  1.4245223959171D+00 -4.6621818687301D-01
20  1.9000000000000D-01  1.4730274400808D+00 -4.5782807368330D-01
21  2.0000000000000D-01  1.5172291329384D+00 -4.4513913255711D-01
22  2.1000000000000D-01  1.5570573772598D+00 -4.2820886699783D-01
23  2.2000000000000D-01  1.5924601369029D+00 -4.0712297213378D-01
24  2.3000000000000D-01  1.6234031021798D+00 -3.8199365705369D-01
25  2.4000000000000D-01  1.6498692524854D+00 -3.5295774675781D-01
26  2.5000000000000D-01  1.6718583256023D+00 -3.2017459488595D-01
27  2.6000000000000D-01  1.6893862038838D+00 -2.8382384045315D-01
28  2.7000000000000D-01  1.7024842281271D+00 -2.4410304337077D-01
29  2.8000000000000D-01  1.7111984503964D+00 -2.0122523453415D-01
30  2.9000000000000D-01  1.7155888373247D+00 -1.5541641670547D-01
31  3.0000000000000D-01  1.7157284355064D+00 -1.0691305230830D-01
32  3.1000000000000D-01  1.7117025105118D+00 -5.5959573583252D-02
33  3.2000000000000D-01  1.7036076707861D+00 -2.8059493451806D-03
34  3.3000000000000D-01  1.6915509872722D+00  5.2294659145383D-02
35  3.4000000000000D-01  1.6756491190064D+00  1.0908812290171D-01
36  3.5000000000000D-01  1.6560274542071D+00  1.6732142289646D-01
37  3.6000000000000D-01  1.6328192755085D+00  2.2674455616549D-01
38  3.7000000000000D-01  1.6061649570137D+00  2.8711224921550D-01
39  3.8000000000000D-01  1.5762111997591D+00  3.4818546135472D-01
40  3.9000000000000D-01  1.5431103110248D+00  4.0973266453748D-01
41  4.0000000000000D-01  1.5070195317058D+00  4.7153089045904D-01
42  4.1000000000000D-01  1.4681004147037D+00  5.3336653988783D-01
43  4.2000000000000D-01  1.4265182560249D+00  5.9503595351010D-01
44  4.3000000000000D-01  1.3824415790063D+00  6.5634574781494D-01
45  4.4000000000000D-01  1.3360416708484D+00  7.1711292369816D-01
46  4.5000000000000D-01  1.2874921694478D+00  7.7716475944260D-01
47  4.6000000000000D-01  1.2369686974003D+00  8.3633850347431D-01
48  4.7000000000000D-01  1.1846485390112D+00  8.9448088573918D-01
49  4.8000000000000D-01  1.1307103552288D+00  9.5144746963324D-01
50  4.9000000000000D-01  1.0753339306103D+00  1.0071018691043D+00
51  5.0000000000000D-01  1.0186999457647D+00  1.0613148577739D+00
52  5.1000000000000D-01  9.6098976819897D-01  1.1139633986744D+00
53  5.2000000000000D-01  9.0238525413204D-01  1.1649296244207D+00
54  5.3000000000000D-01  8.4306855364501D-01  1.2140997983242D+00
55  5.4000000000000D-01  7.8322191150513D-01  1.2613632870910D+00
56  5.5000000000000D-01  7.2302745614138D-01  1.3066115753234D+00
57  5.6000000000000D-01  6.6266696955367D-01  1.3497373510761D+00
58  5.7000000000000D-01  6.0232163140650D-01  1.3906336902067D+00
59  5.8000000000000D-01  5.4217173117820D-01  1.4291933652423D+00
60  5.9000000000000D-01  4.8239634300390D-01  1.4653083019802D+00
61  6.0000000000000D-01  4.2317295874586D-01  1.4988692041024D+00
62  6.1000000000000D-01  3.6467707584043D-01  1.5297653627361D+00
63  6.2000000000000D-01  3.0708173757878D-01  1.5578846642337D+00
64  6.3000000000000D-01  2.5055702467604D-01  1.5831138054663D+00
65  6.4000000000000D-01  1.9526949822899D-01  1.6053387217741D+00
66  6.5000000000000D-01  1.4138159545402D-01  1.6244452283896D+00
67  6.6000000000000D-01  8.9050980900774D-02  1.6403198717551D+00
68  6.7000000000000D-01  3.8429857127668D-02  1.6528509827799D+00
69  6.8000000000000D-01 -1.0335759909412D-02  1.6619299197545D+00
70  6.9000000000000D-01 -5.7106794297509D-02  1.6674524844786D+00
71  7.0000000000000D-01 -1.0175188484909D-01  1.6693204912096D+00
72  7.1000000000000D-01 -1.4414817241283D-01  1.6674434643985D+00
73  7.2000000000000D-01 -1.8418209028419D-01  1.6617404378628D+00
74  7.3000000000000D-01 -2.2175014741883D-01  1.6521418251775D+00
75  7.4000000000000D-01 -2.5675969353348D-01  1.6385913286514D+00
76  7.5000000000000D-01 -2.8912965473104D-01  1.6210478523618D+00
77  7.6000000000000D-01 -3.1879122801887D-01  1.5994873833862D+00
78  7.7000000000000D-01 -3.4568852301065D-01  1.5739048046218D+00
79  7.8000000000000D-01 -3.6977913921977D-01  1.5443156024424D+00
80  7.9000000000000D-01 -3.9103466766749D-01  1.5107574329311D+00
81  8.0000000000000D-01 -4.0944110604216D-01  1.4732915115274D+00
82  8.1000000000000D-01 -4.2499917735361D-01  1.4320037926567D+00
83  8.2000000000000D-01 -4.3772454292192D-01  1.3870059082272D+00
84  8.3000000000000D-01 -4.4764790161271D-01  1.3384358367730D+00
85  8.4000000000000D-01 -4.5481496846936D-01  1.2864582784491D+00
86  8.5000000000000D-01 -4.5928632727922D-01  1.2312647149967D+00
87  8.6000000000000D-01 -4.6113715312949D-01  1.1730731381472D+00
88  8.7000000000000D-01 -4.6045680263626D-01  1.1121274346503D+00
89  8.8000000000000D-01 -4.5734827124603D-01  1.0486964211393D+00
90  8.9000000000000D-01 -4.5192751878766D-01  9.8307252729536D-01
91  9.0000000000000D-01 -4.4432266626780D-01  9.1557013118132D-01
92  9.1000000000000D-01 -4.3467306872870D-01  8.4652355608262D-01
93  9.2000000000000D-01 -4.2312827079474D-01  7.7628474365506D-01
94  9.3000000000000D-01 -4.0984685329701D-01  7.0522062353243D-01
95  9.4000000000000D-01 -3.9499518105502D-01  6.3371020471986D-01
96  9.5000000000000D-01 -3.7874606348504D-01  5.6214141900178D-01
97  9.6000000000000D-01 -3.6127734116815D-01  4.9090775114366D-01
98  9.7000000000000D-01 -3.4277041283889D-01  4.2040469483846D-01
99  9.8000000000000D-01 -3.2340871836732D-01  3.5102607688449D-01
100  9.9000000000000D-01 -3.0337619430517D-01  2.8316029531007D-01
101  1.0000000000000D+00 -2.8285571927599D-01  2.1718651952465D-01
102  1.0100000000000D+00 -2.6202756702313D-01  1.5347090243469D-01
103  1.0200000000000D+00 -2.4106788521321D-01  9.2362855578516D-02
104  1.0300000000000D+00 -2.2014721813486D-01  3.4191438733478D-02
105  1.0400000000000D+00 -1.9942909120843D-01 -2.0738084945402D-02
106  1.0500000000000D+00 -1.7906867482136D-01 -7.2147478136976D-02
107  1.0600000000000D+00 -1.5921154424079D-01 -1.1978849478770D-01
108  1.0700000000000D+00 -1.3999255145944D-01 -1.6344553607568D-01
109  1.0800000000000D+00 -1.2153482385602D-01 -2.0293795373193D-01
110  1.0900000000000D+00 -1.0394890322321D-01 -2.3812196134745D-01
111  1.1000000000000D+00 -8.7332023262688D-02 -2.6889216828402D-01
112  1.1100000000000D+00 -7.1767606552040D-02 -2.9518245094989D-01
113  1.1200000000000D+00 -5.7324759325058D-02 -3.1696697205571D-01
114  1.1300000000000D+00 -4.4057643534000D-02 -3.3426177757561D-01
115  1.1400000000000D+00 -3.2004984767913D-02 -3.4712596496177D-01
116  1.1500000000000D+00 -2.1190043958674D-02 -3.5566127908981D-01
117  1.1600000000000D+00 -1.1620879673196D-02 -3.6001078741816D-01
118  1.1700000000000D+00 -3.2907405136332D-03 -3.6035723579010D-01
119  1.1800000000000D+00  3.8213601140359D-03 -3.5692088208649D-01
120  1.1900000000000D+00  9.7499056233555D-03 -3.4995687267194D-01
121  1.2000000000000D+00  1.4541983475609D-02 -3.3975218820229D-01
122  1.2100000000000D+00  1.8256248849358D-02 -3.2662219012634D-01
123  1.2200000000000D+00  2.0961757642626D-02 -3.1090680552026D-01
124  1.2300000000000D+00  2.2736683786674D-02 -2.9296639412838D-01
125  1.2400000000000D+00  2.3666936964322D-02 -2.7317734482792D-01
126  1.2500000000000D+00  2.3844697798744D-02 -2.5192745163442D-01
127  1.2600000000000D+00  2.3366889504261D-02 -2.2961112516746D-01
128  1.2700000000000D+00  2.2333605022728D-02 -2.0662449563409D-01
129  1.2800000000000D+00  2.0846509387200D-02 -1.8336046552809D-01
130  1.2900000000000D+00  1.9007237814769D-02 -1.6020377262020D-01
131  1.3000000000000D+00  1.6915809232570D-02 -1.3752612147249D-01
132  1.3100000000000D+00  1.4669075748194D-02 -1.1568144411463D-01
133  1.3200000000000D+00  1.2359227340837D-02 -9.5001346986496D-02
134  1.3300000000000D+00  1.0072370192043D-02 -7.5790798693299D-02
135  1.3400000000000D+00  7.8871976907744D-03 -5.8324114982599D-02
136  1.3500000000000D+00  5.8737696453017D-03 -4.2841287048080D-02
137  1.3600000000000D+00  4.0926349412834D-03 -2.9546313050254D-02
138  1.3700000000000D+00  2.5936537900668D-03 -1.8602731828268D-02
139  1.3800000000000D+00  1.4083733380251D-03 -1.0081336174111D-02
140  1.3900000000000D+00  5.7675224215151D-04 -4.1585604191488D-03
141  1.4000000000000D+00  1.2587983044312D-04 -9.6360567013531D-04
142  1.4100000000000D+00 -2.7036195417454D-05  1.3452589072385D-04
143  1.4200000000000D+00 -2.0418072323420D-05  1.2696626861247D-04
144  1.4300000000000D+00  8.2140295843511D-06 -5.2198827988329D-05
145  1.4400000000000D+00  3.2595271049561D-06 -2.0953809593489D-05
146  1.4500000000000D+00 -1.7879677056145D-06  1.1199849678417D-05
147  1.4600000000000D+00  4.3824095522258D-09 -1.3862650812962D-08
148  1.4700000000000D+00  4.1965054641948D-08 -1.3274589969638D-07
149  1.4800000000000D+00  0.0000000000000D+00  0.0000000000000D+00
150  1.4900000000000D+00  0.0000000000000D+00  0.0000000000000D+00
151  1.5000000000000D+00  0.0000000000000D+00  0.0000000000000D+00
152  1.5100000000000D+00  0.0000000000000D+00  0.0000000000000D+00
153  1.5200000000000D+00  0.0000000000000D+00  0.0000000000000D+00
154  1.5300000000000D+00  0.0000000000000D+00  0.0000000000000D+00
155  1.5400000000000D+00  0.0000000000000D+00  0.0000000000000D+00
156  1.5500000000000D+00  0.0000000000000D+00  0.0000000000000D+00
157  1.5600000000000D+00  0.0000000000000D+00  0.0000000000000D+00
158  1.5700000000000D+00  0.0000000000000D+00  0.0000000000000D+00
159  1.5800000000000D+00  0.0000000000000D+00  0.0000000000000D+00
160  1.5900000000000D+00  0.0000000000000D+00  0.0000000000000D+00
161  1.6000000000000D+00  0.0000000000000D+00  0.0000000000000D+00
162  1.6100000000000D+00  0.0000000000000D+00  0.0000000000000D+00
163  1.6200000000000D+00  0.0000000000000D+00  0.0000000000000D+00
164  1.6300000000000D+00  0.0000000000000D+00  0.0000000000000D+00
165  1.6400000000000D+00  0.0000000000000D+00  0.0000000000000D+00
166  1.6500000000000D+00  0.0000000000000D+00  0.0000000000000D+00
167  1.6600000000000D+00  0.0000000000000D+00  0.0000000000000D+00
168  1.6700000000000D+00  0.0000000000000D+00  0.0000000000000D+00
169  1.6800000000000D+00  0.0000000000000D+00  0.0000000000000D+00
170  1.6900000000000D+00  0.0000000000000D+00  0.0000000000000D+00
171  1.7000000000000D+00  0.0000000000000D+00  0.0000000000000D+00
172  1.7100000000000D+00  0.0000000000000D+00  0.0000000000000D+00
173  1.7200000000000D+00  0.0000000000000D+00  0.0000000000000D+00
174  1.7300000000000D+00  0.0000000000000D+00  0.0000000000000D+00
175  1.7400000000000D+00  0.0000000000000D+00  0.0000000000000D+00
176  1.7500000000000D+00  0.0000000000000D+00  0.0000000000000D+00
177  1.7600000000000D+00  0.0000000000000D+00  0.0000000000000D+00
178  1.7700000000000D+00  0.0000000000000D+00  0.0000000000000D+00
179  1.7800000000000D+00  0.0000000000000D+00  0.0000000000000D+00
180  1.7900000000000D+00  0.0000000000000D+00  0.0000000000000D+00
181  1.8000000000000D+00  0.0000000000000D+00  0.0000000000000D+00
182  1.8100000000000D+00  0.0000000000000D+00  0.0000000000000D+00
183  1.8200000000000D+00  0.0000000000000D+00  0.0000000000000D+00
184  1.8300000000000D+00  0.0000000000000D+00  0.0000000000000D+00
185  1.8400000000000D+00  0.0000000000000D+00  0.0000000000000D+00
186  1.8500000000000D+00  0.0000000000000D+00  0.0000000000000D+00
187  1.8600000000000D+00  0.0000000000000D+00  0.0000000000000D+00
188  1.8700000000000D+00  0.0000000000000D+00  0.0000000000000D+00
189  1.8800000000000D+00  0.0000000000000D+00  0.0000000000000D+00
190  1.8900000000000D+00  0.0000000000000D+00  0.0000000000000D+00
191  1.9000000000000D+00  0.0000000000000D+00  0.0000000000000D+00
192  1.9100000000000D+00  0.0000000000000D+00  0.0000000000000D+00
193  1.9200000000000D+00  0.0000000000000D+00  0.0000000000000D+00
194  1.9300000000000D+00  0.0000000000000D+00  0.0000000000000D+00
195  1.9400000000000D+00  0.0000000000000D+00  0.0000000000000D+00
196  1.9500000000000D+00  0.0000000000000D+00  0.0000000000000D+00
197  1.9600000000000D+00  0.0000000000000D+00  0.0000000000000D+00
198  1.9700000000000D+00  0.0000000000000D+00  0.0000000000000D+00
199  1.9800000000000D+00  0.0000000000000D+00  0.0000000000000D+00
200  1.9900000000000D+00  0.0000000000000D+00  0.0000000000000D+00
201  2.0000000000000D+00  0.0000000000000D+00  0.0000000000000D+00
202  2.0100000000000D+00  0.0000000000000D+00  0.0000000000000D+00
203  2.0200000000000D+00  0.0000000000000D+00  0.0000000000000D+00
204  2.0300000000000D+00  0.0000000000000D+00  0.0000000000000D+00
205  2.0400000000000D+00  0.0000000000000D+00  0.0000000000000D+00
206  2.0500000000000D+00  0.0000000000000D+00  0.0000000000000D+00
207  2.0600000000000D+00  0.0000000000000D+00  0.0000000000000D+00
208  2.0700000000000D+00  0.0000000000000D+00  0.0000000000000D+00
209  2.0800000000000D+00  0.0000000000000D+00  0.0000000000000D+00
210  2.0900000000000D+00  0.0000000000000D+00  0.0000000000000D+00
211  2.1000000000000D+00  0.0000000000000D+00  0.0000000000000D+00
212  2.1100000000000D+00  0.0000000000000D+00  0.0000000000000D+00
213  2.1200000000000D+00  0.0000000000000D+00  0.0000000000000D+00
214  2.1300000000000D+00  0.0000000000000D+00  0.0000000000000D+00
215  2.1400000000000D+00  0.0000000000000D+00  0.0000000000000D+00
216  2.1500000000000D+00  0.0000000000000D+00  0.0000000000000D+00
217  2.1600000000000D+00  0.0000000000000D+00  0.0000000000000D+00
218  2.1700000000000D+00  0.0000000000000D+00  0.0000000000000D+00
219  2.1800000000000D+00  0.0000000000000D+00  0.0000000000000D+00
220  2.1900000000000D+00  0.0000000000000D+00  0.0000000000000D+00
221  2.2000000000000D+00  0.0000000000000D+00  0.0000000000000D+00
222  2.2100000000000D+00  0.0000000000000D+00  0.0000000000000D+00
223  2.2200000000000D+00  0.0000000000000D+00  0.0000000000000D+00
224  2.2300000000000D+00  0.0000000000000D+00  0.0000000000000D+00
225  2.2400000000000D+00  0.0000000000000D+00  0.0000000000000D+00
226  2.2500000000000D+00  0.0000000000000D+00  0.0000000000000D+00
227  2.2600000000000D+00  0.0000000000000D+00  0.0000000000000D+00
228  2.2700000000000D+00  0.0000000000000D+00  0.0000000000000D+00
229  2.2800000000000D+00  0.0000000000000D+00  0.0000000000000D+00
230  2.2900000000000D+00  0.0000000000000D+00  0.0000000000000D+00
231  2.3000000000000D+00  0.0000000000000D+00  0.0000000000000D+00
232  2.3100000000000D+00  0.0000000000000D+00  0.0000000000000D+00
233  2.3200000000000D+00  0.0000000000000D+00  0.0000000000000D+00
234  2.3300000000000D+00  0.0000000000000D+00  0.0000000000000D+00
235  2.3400000000000D+00  0.0000000000000D+00  0.0000000000000D+00
236  2.3500000000000D+00  0.0000000000000D+00  0.0000000000000D+00
237  2.3600000000000D+00  0.0000000000000D+00  0.0000000000000D+00
238  2.3700000000000D+00  0.0000000000000D+00  0.0000000000000D+00
239  2.3800000000000D+00  0.0000000000000D+00  0.0000000000000D+00
240  2.3900000000000D+00  0.0000000000000D+00  0.0000000000000D+00
241  2.4000000000000D+00  0.0000000000000D+00  0.0000000000000D+00
242  2.4100000000000D+00  0.0000000000000D+00  0.0000000000000D+00
243  2.4200000000000D+00  0.0000000000000D+00  0.0000000000000D+00
244  2.4300000000000D+00  0.0000000000000D+00  0.0000000000000D+00
245  2.4400000000000D+00  0.0000000000000D+00  0.0000000000000D+00
246  2.4500000000000D+00  0.0000000000000D+00  0.0000000000000D+00
247  2.4600000000000D+00  0.0000000000000D+00  0.0000000000000D+00
248  2.4700000000000D+00  0.0000000000000D+00  0.0000000000000D+00
249  2.4800000000000D+00  0.0000000000000D+00  0.0000000000000D+00
250  2.4900000000000D+00  0.0000000000000D+00  0.0000000000000D+00
251  2.5000000000000D+00  0.0000000000000D+00  0.0000000000000D+00
252  2.5100000000000D+00  0.0000000000000D+00  0.0000000000000D+00
253  2.5200000000000D+00  0.0000000000000D+00  0.0000000000000D+00
254  2.5300000000000D+00  0.0000000000000D+00  0.0000000000000D+00
255  2.5400000000000D+00  0.0000000000000D+00  0.0000000000000D+00
256  2.5500000000000D+00  0.0000000000000D+00  0.0000000000000D+00
257  2.5600000000000D+00  0.0000000000000D+00  0.0000000000000D+00
258  2.5700000000000D+00  0.0000000000000D+00  0.0000000000000D+00
259  2.5800000000000D+00  0.0000000000000D+00  0.0000000000000D+00
260  2.5900000000000D+00  0.0000000000000D+00  0.0000000000000D+00
261  2.6000000000000D+00  0.0000000000000D+00  0.0000000000000D+00
262  2.6100000000000D+00  0.0000000000000D+00  0.0000000000000D+00
263  2.6200000000000D+00  0.0000000000000D+00  0.0000000000000D+00
264  2.6300000000000D+00  0.0000000000000D+00  0.0000000000000D+00
265  2.6400000000000D+00  0.0000000000000D+00  0.0000000000000D+00
266  2.6500000000000D+00  0.0000000000000D+00  0.0000000000000D+00
267  2.6600000000000D+00  0.0000000000000D+00  0.0000000000000D+00
268  2.6700000000000D+00  0.0000000000000D+00  0.0000000000000D+00
269  2.6800000000000D+00  0.0000000000000D+00  0.0000000000000D+00
270  2.6900000000000D+00  0.0000000000000D+00  0.0000000000000D+00
271  2.7000000000000D+00  0.0000000000000D+00  0.0000000000000D+00
272  2.7100000000000D+00  0.0000000000000D+00  0.0000000000000D+00
273  2.7200000000000D+00  0.0000000000000D+00  0.0000000000000D+00
274  2.7300000000000D+00  0.0000000000000D+00  0.0000000000000D+00
275  2.7400000000000D+00  0.0000000000000D+00  0.0000000000000D+00
276  2.7500000000000D+00  0.0000000000000D+00  0.0000000000000D+00
277  2.7600000000000D+00  0.0000000000000D+00  0.0000000000000D+00
278  2.7700000000000D+00  0.0000000000000D+00  0.0000000000000D+00
279  2.7800000000000D+00  0.0000000000000D+00  0.0000000000000D+00
280  2.7900000000000D+00  0.0000000000000D+00  0.0000000000000D+00
281  2.8000000000000D+00  0.0000000000000D+00  0.0000000000000D+00
282  2.8100000000000D+00  0.0000000000000D+00  0.0000000000000D+00
283  2.8200000000000D+00  0.0000000000000D+00  0.0000000000000D+00
284  2.8300000000000D+00  0.0000000000000D+00  0.0000000000000D+00
285  2.8400000000000D+00  0.0000000000000D+00  0.0000000000000D+00
286  2.8500000000000D+00  0.0000000000000D+00  0.0000000000000D+00
287  2.8600000000000D+00  0.0000000000000D+00  0.0000000000000D+00
288  2.8700000000000D+00  0.0000000000000D+00  0.0000000000000D+00
289  2.8800000000000D+00  0.0000000000000D+00  0.0000000000000D+00
290  2.8900000000000D+00  0.0000000000000D+00  0.0000000000000D+00
291  2.9000000000000D+00  0.0000000000000D+00  0.0000000000000D+00
292  2.9100000000000D+00  0.0000000000000D+00  0.0000000000000D+00
293  2.9200000000000D+00  0.0000000000000D+00  0.0000000000000D+00
294  2.9300000000000D+00  0.0000000000000D+00  0.0000000000000D+00
295  2.9400000000000D+00  0.0000000000000D+00  0.0000000000000D+00
296  2.9500000000000D+00  0.0000000000000D+00  0.0000000000000D+00
297  2.9600000000000D+00  0.0000000000000D+00  0.0000000000000D+00
298  2.9700000000000D+00  0.0000000000000D+00  0.0000000000000D+00
299  2.9800000000000D+00  0.0000000000000D+00  0.0000000000000D+00
300  2.9900000000000D+00  0.0000000000000D+00  0.0000000000000D+00
301  3.0000000000000D+00  0.0000000000000D+00  0.0000000000000D+00
302  3.0100000000000D+00  0.0000000000000D+00  0.0000000000000D+00
303  3.0200000000000D+00  0.0000000000000D+00  0.0000000000000D+00
304  3.0300000000000D+00  0.0000000000000D+00  0.0000000000000D+00
305  3.0400000000000D+00  0.0000000000000D+00  0.0000000000000D+00
306  3.0500000000000D+00  0.0000000000000D+00  0.0000000000000D+00
307  3.0600000000000D+00  0.0000000000000D+00  0.0000000000000D+00
308  3.0700000000000D+00  0.0000000000000D+00  0.0000000000000D+00
309  3.0800000000000D+00  0.0000000000000D+00  0.0000000000000D+00
310  3.0900000000000D+00  0.0000000000000D+00  0.0000000000000D+00
311  3.1000000000000D+00  0.0000000000000D+00  0.0000000000000D+00
312  3.1100000000000D+00  0.0000000000000D+00  0.0000000000000D+00
313  3.1200000000000D+00  0.0000000000000D+00  0.0000000000000D+00
314  3.1300000000000D+00  0.0000000000000D+00  0.0000000000000D+00
315  3.1400000000000D+00  0.0000000000000D+00  0.0000000000000D+00
316  3.1500000000000D+00  0.0000000000000D+00  0.0000000000000D+00
317  3.1600000000000D+00  0.0000000000000D+00  0.0000000000000D+00
318  3.1700000000000D+00  0.0000000000000D+00  0.0000000000000D+00
319  3.1800000000000D+00  0.0000000000000D+00  0.0000000000000D+00
320  3.1900000000000D+00  0.0000000000000D+00  0.0000000000000D+00
321  3.2000000000000D+00  0.0000000000000D+00  0.0000000000000D+00
322  3.2100000000000D+00  0.0000000000000D+00  0.0000000000000D+00
323  3.2200000000000D+00  0.0000000000000D+00  0.0000000000000D+00
324  3.2300000000000D+00  0.0000000000000D+00  0.0000000000000D+00
325  3.2400000000000D+00  0.0000000000000D+00  0.0000000000000D+00
326  3.2500000000000D+00  0.0000000000000D+00  0.0000000000000D+00
327  3.2600000000000D+00  0.0000000000000D+00  0.0000000000000D+00
328  3.2700000000000D+00  0.0000000000000D+00  0.0000000000000D+00
329  3.2800000000000D+00  0.0000000000000D+00  0.0000000000000D+00
330  3.2900000000000D+00  0.0000000000000D+00  0.0000000000000D+00
331  3.3000000000000D+00  0.0000000000000D+00  0.0000000000000D+00
332  3.3100000000000D+00  0.0000000000000D+00  0.0000000000000D+00
333  3.3200000000000D+00  0.0000000000000D+00  0.0000000000000D+00
334  3.3300000000000D+00  0.0000000000000D+00  0.0000000000000D+00
335  3.3400000000000D+00  0.0000000000000D+00  0.0000000000000D+00
336  3.3500000000000D+00  0.0000000000000D+00  0.0000000000000D+00
337  3.3600000000000D+00  0.0000000000000D+00  0.0000000000000D+00
338  3.3700000000000D+00  0.0000000000000D+00  0.0000000000000D+00
339  3.3800000000000D+00  0.0000000000000D+00  0.0000000000000D+00
340  3.3900000000000D+00  0.0000000000000D+00  0.0000000000000D+00
341  3.4000000000000D+00  0.0000000000000D+00  0.0000000000000D+00
342  3.4100000000000D+00  0.0000000000000D+00  0.0000000000000D+00
343  3.4200000000000D+00  0.0000000000000D+00  0.0000000000000D+00
344  3.4300000000000D+00  0.0000000000000D+00  0.0000000000000D+00
345  3.4400000000000D+00  0.0000000000000D+00  0.0000000000000D+00
346  3.4500000000000D+00  0.0000000000000D+00  0.0000000000000D+00
347  3.4600000000000D+00  0.0000000000000D+00  0.0000000000000D+00
348  3.4700000000000D+00  0.0000000000000D+00  0.0000000000000D+00
349  3.4800000000000D+00  0.0000000000000D+00  0.0000000000000D+00
350  3.4900000000000D+00  0.0000000000000D+00  0.0000000000000D+00
351  3.5000000000000D+00  0.0000000000000D+00  0.0000000000000D+00
352  3.5100000000000D+00  0.0000000000000D+00  0.0000000000000D+00
353  3.5200000000000D+00  0.0000000000000D+00  0.0000000000000D+00
354  3.5300000000000D+00  0.0000000000000D+00  0.0000000000000D+00
355  3.5400000000000D+00  0.0000000000000D+00  0.0000000000000D+00
356  3.5500000000000D+00  0.0000000000000D+00  0.0000000000000D+00
357  3.5600000000000D+00  0.0000000000000D+00  0.0000000000000D+00
358  3.5700000000000D+00  0.0000000000000D+00  0.0000000000000D+00
359  3.5800000000000D+00  0.0000000000000D+00  0.0000000000000D+00
360  3.5900000000000D+00  0.0000000000000D+00  0.0000000000000D+00
361  3.6000000000000D+00  0.0000000000000D+00  0.0000000000000D+00
362  3.6100000000000D+00  0.0000000000000D+00  0.0000000000000D+00
363  3.6200000000000D+00  0.0000000000000D+00  0.0000000000000D+00
364  3.6300000000000D+00  0.0000000000000D+00  0.0000000000000D+00
365  3.6400000000000D+00  0.0000000000000D+00  0.0000000000000D+00
366  3.6500000000000D+00  0.0000000000000D+00  0.0000000000000D+00
367  3.6600000000000D+00  0.0000000000000D+00  0.0000000000000D+00
368  3.6700000000000D+00  0.0000000000000D+00  0.0000000000000D+00
369  3.6800000000000D+00  0.0000000000000D+00  0.0000000000000D+00
370  3.6900000000000D+00  0.0000000000000D+00  0.0000000000000D+00
371  3.7000000000000D+00  0.0000000000000D+00  0.0000000000000D+00
372  3.7100000000000D+00  0.0000000000000D+00  0.0000000000000D+00
373  3.7200000000000D+00  0.0000000000000D+00  0.0000000000000D+00
374  3.7300000000000D+00  0.0000000000000D+00  0.0000000000000D+00
375  3.7400000000000D+00  0.0000000000000D+00  0.0000000000000D+00
376  3.7500000000000D+00  0.0000000000000D+00  0.0000000000000D+00
377  3.7600000000000D+00  0.0000000000000D+00  0.0000000000000D+00
378  3.7700000000000D+00  0.0000000000000D+00  0.0000000000000D+00
379  3.7800000000000D+00  0.0000000000000D+00  0.0000000000000D+00
380  3.7900000000000D+00  0.0000000000000D+00  0.0000000000000D+00
381  3.8000000000000D+00  0.0000000000000D+00  0.0000000000000D+00
382  3.8100000000000D+00  0.0000000000000D+00  0.0000000000000D+00
383  3.8200000000000D+00  0.0000000000000D+00  0.0000000000000D+00
384  3.8300000000000D+00  0.0000000000000D+00  0.0000000000000D+00
385  3.8400000000000D+00  0.0000000000000D+00  0.0000000000000D+00
386  3.8500000000000D+00  0.0000000000000D+00  0.0000000000000D+00
387  3.8600000000000D+00  0.0000000000000D+00  0.0000000000000D+00
388  3.8700000000000D+00  0.0000000000000D+00  0.0000000000000D+00
389  3.8800000000000D+00  0.0000000000000D+00  0.0000000000000D+00
390  3.8900000000000D+00  0.0000000000000D+00  0.0000000000000D+00
391  3.9000000000000D+00  0.0000000000000D+00  0.0000000000000D+00
392  3.9100000000000D+00  0.0000000000000D+00  0.0000000000000D+00
393  3.9200000000000D+00  0.0000000000000D+00  0.0000000000000D+00
394  3.9300000000000D+00  0.0000000000000D+00  0.0000000000000D+00
395  3.9400000000000D+00  0.0000000000000D+00  0.0000000000000D+00
396  3.9500000000000D+00  0.0000000000000D+00  0.0000000000000D+00
397  3.9600000000000D+00  0.0000000000000D+00  0.0000000000000D+00
398  3.9700000000000D+00  0.0000000000000D+00  0.0000000000000D+00
399  3.9800000000000D+00  0.0000000000000D+00  0.0000000000000D+00
400  3.9900000000000D+00  0.0000000000000D+00  0.0000000000000D+00
1                        -2.1715542203862D+00 -4.2761787719970D-01
1  0.0000000000000D+00  8.8539576892366D-08 -2.0729539054742D-07
2  1.0000000000000D-02  4.3223415388251D-03 -4.5148852197292D-03
3  2.0000000000000D-02  1.7214142594350D-02 -1.7912998072261D-02
4  3.0000000000000D-02  3.8451700572077D-02 -3.9759170220386D-02
5  4.0000000000000D-02  6.7668680957051D-02 -6.9342853695833D-02
6  5.0000000000000D-02  1.0436567366814D-01 -1.0569975355562D-01
7  6.0000000000000D-02  1.4792318119820D-01 -1.4764119534757D-01
8  7.0000000000000D-02  1.9761766152483D-01 -1.9379034188253D-01
9  8.0000000000000D-02  2.5264016023683D-01 -2.4262416651512D-01
10  9.0000000000000D-02  3.1211699140080D-01 -2.9251991527738D-01
11  1.0000000000000D-01  3.7513186758526D-01 -3.4180465300046D-01
12  1.1000000000000D-01  4.4074883790752D-01 -3.8880639311979D-01
13  1.2000000000000D-01  5.0803537020438D-01 -4.3190526008700D-01
14  1.3000000000000D-01  5.7608491013131D-01 -4.6958312878246D-01
15  1.4000000000000D-01  6.4403826629028D-01 -5.0047022727372D-01
16  1.5000000000000D-01  7.1110320591988D-01 -5.2338727655138D-01
17  1.6000000000000D-01  7.7657169924428D-01 -5.3738187102455D-01
18  1.7000000000000D-01  8.3983432073138D-01 -5.4175797283162D-01
19  1.8000000000000D-01  9.0039140023266D-01 -5.3609759652331D-01
20  1.9000000000000D-01  9.5786061381432D-01 -5.2027399248594D-01
21  2.0000000000000D-01  1.0119808102333D+00 -4.9445589083050D-01
22  2.1000000000000D-01  1.0626119813739D+00 -4.5910263495717D-01
23  2.2000000000000D-01  1.1097314002720D+00 -4.1495030777100D-01
24  2.3000000000000D-01  1.1534260652377D+00 -3.6298922549067D-01
25  2.4000000000000D-01  1.1938816996858D+00 -3.0443343613783D-01
26  2.5000000000000D-01  1.2313686613300D+00 -2.4068310432070D-01
27  2.6000000000000D-01  1.2662252083196D+00 -1.7328088354752D-01
28  2.7000000000000D-01  1.2988386509158D+00 -1.0386356542373D-01
29  2.8000000000000D-01  1.3296249829995D+00 -3.4110446000726D-02
30  2.9000000000000D-01  1.3590076360889D+00  3.4310041380804D-02
31  3.0000000000000D-01  1.3873960281395D+00  9.9793813610403D-02
32  3.1000000000000D-01  1.4151645892544D+00  1.6085311614910D-01
33  3.2000000000000D-01  1.4426329361672D+00  2.1616539440523D-01
34  3.3000000000000D-01  1.4700478371838D+00  2.6461753962129D-01
35  3.4000000000000D-01  1.4975675599526D+00  3.0534411547529D-01
36  3.5000000000000D-01  1.5252491273283D+00  3.3775833842536D-01
37  3.6000000000000D-01  1.5530389235433D+00  3.6157478913523D-01
38  3.7000000000000D-01  1.5807669962483D+00  3.7682306836373D-01
39  3.8000000000000D-01  1.6081452924444D+00  3.8385187182122D-01
40  3.9000000000000D-01  1.6347699509726D+00  3.8332323722290D-01
41  4.0000000000000D-01  1.6601276543472D+00  3.7619700508783D-01
42  4.1000000000000D-01  1.6836059217551D+00  3.6370582444909D-01
43  4.2000000000000D-01  1.7045071064955D+00  3.4732131709891D-01