Mg    ONCVPSP-3.3.0  r_core=   1.16056   1.56380
12.0000     10.0000      180429    zatom,zion,pspd
8 -116133   1     4   400     0    pspcod,pspxc,lmax,lloc,mmax,r2well
3.99000000  0.00000000  0.00000000    rchrg fchrg qchrg
2     2     0     0    nproj
3     1           extension_switch
2     0     0    nprojso
0                        -8.2629135998837D-01  2.2309100788163D+00
1  0.0000000000000D+00 -8.8174983980949D-10 -2.1624766866069D-08
2  1.0000000000000D-02  3.2158801513994D-02  1.2307242218504D-01
3  2.0000000000000D-02  6.4326281664619D-02  2.4525323784668D-01
4  3.0000000000000D-02  9.6511159718028D-02  3.6566342340263D-01
5  4.0000000000000D-02  1.2872222839563D-01  4.8344886498036D-01
6  5.0000000000000D-02  1.6096837132683D-01  5.9779217856483D-01
7  6.0000000000000D-02  1.9325855802304D-01  7.0792378439685D-01
8  7.0000000000000D-02  2.2560180994814D-01  8.1313201315293D-01
9  8.0000000000000D-02  2.5800713214236D-01  9.1277204306279D-01
10  9.0000000000000D-02  2.9048340591764D-01  1.0062734932222D+00
11  1.0000000000000D-01  3.2303923935630D-01  1.0931465283505D+00
12  1.1000000000000D-01  3.5568277368222D-01  1.1729863634452D+00
13  1.2000000000000D-01  3.8842144500070D-01  1.2454760924511D+00
14  1.3000000000000D-01  4.2126170238439D-01  1.3103878023866D+00
15  1.4000000000000D-01  4.5420868478155D-01  1.3675819725025D+00
16  1.5000000000000D-01  4.8726586070034D-01  1.4170051961375D+00
17  1.6000000000000D-01  5.2043463604251D-01  1.4586863001063D+00
18  1.7000000000000D-01  5.5371393678389D-01  1.4927309718718D+00
19  1.8000000000000D-01  5.8709977439292D-01  1.5193150376095D+00
20  1.9000000000000D-01  6.2058480291081D-01  1.5386765638143D+00
21  2.0000000000000D-01  6.5415787745734D-01  1.5511069806638D+00
22  2.1000000000000D-01  6.8780362455278D-01  1.5569414463379D+00
23  2.2000000000000D-01  7.2150203503635D-01  1.5565486874348D+00
24  2.3000000000000D-01  7.5522809050348D-01  1.5503205611332D+00
25  2.4000000000000D-01  7.8895143406657D-01  1.5386615895943D+00
26  2.5000000000000D-01  8.2263609586612D-01  1.5219787161495D+00
27  2.6000000000000D-01  8.5624028312230D-01  1.5006715260894D+00
28  2.7000000000000D-01  8.8971624363196D-01  1.4751231625136D+00
29  2.8000000000000D-01  9.2301021049676D-01  1.4456921499693D+00
30  2.9000000000000D-01  9.5606243453518D-01  1.4127053159173D+00
31  3.0000000000000D-01  9.8880730931072D-01  1.3764519729088D+00
32  3.1000000000000D-01  1.0211735920310D+00  1.3371794933588D+00
33  3.2000000000000D-01  1.0530847217715D+00  1.2950903746577D+00
34  3.3000000000000D-01  1.0844592345913D+00  1.2503408558559D+00
35  3.4000000000000D-01  1.1152112731776D+00  1.2030411091150D+00
36  3.5000000000000D-01  1.1452511867206D+00  1.1532569904239D+00
37  3.6000000000000D-01  1.1744862148232D+00  1.1010132956134D+00
38  3.7000000000000D-01  1.2028212474376D+00  1.0462984303676D+00
39  3.8000000000000D-01  1.2301596511248D+00  9.8907036759122D-01
40  3.9000000000000D-01  1.2564041504016D+00  9.2926373297769D-01
41  4.0000000000000D-01  1.2814577516041D+00  8.6679783070397D-01
42  4.1000000000000D-01  1.3052246955875D+00  8.0158539654746D-01
43  4.2000000000000D-01  1.3276114247294D+00  7.3354184597149D-01
44  4.3000000000000D-01  1.3485275491301D+00  6.6259477035234D-01
45  4.4000000000000D-01  1.3678867966221D+00  5.8869342589030D-01
46  4.5000000000000D-01  1.3856079312228D+00  5.1181795709997D-01
47  4.6000000000000D-01  1.4016156249975D+00  4.3198810021838D-01
48  4.7000000000000D-01  1.4158412689349D+00  3.4927112136907D-01
49  4.8000000000000D-01  1.4282237093665D+00  2.6378875970439D-01
50  4.9000000000000D-01  1.4387098976749D+00  1.7572296670999D-01
51  5.0000000000000D-01  1.4472554424996D+00  8.5320258963299D-02
52  5.1000000000000D-01  1.4538250553473D+00 -7.1054676889276D-03
53  5.2000000000000D-01  1.4583928824044D+00 -1.0117177995511D-01
54  5.3000000000000D-01  1.4609427174010D+00 -1.9642828458603D-01
55  5.4000000000000D-01  1.4614680925410D+00 -2.9235898113982D-01
56  5.5000000000000D-01  1.4599722467539D+00 -3.8838638811634D-01
57  5.6000000000000D-01  1.4564679727907D+00 -4.8387739860028D-01
58  5.7000000000000D-01  1.4509773469296D+00 -5.7815078008793D-01
59  5.8000000000000D-01  1.4435313472410D+00 -6.7048619305411D-01
60  5.9000000000000D-01  1.4341693684192D+00 -7.6013456521620D-01
61  6.0000000000000D-01  1.4229386431063D+00 -8.4632962390752D-01
62  6.1000000000000D-01  1.4098935813360D+00 -9.2830035868392D-01
63  6.2000000000000D-01  1.3950950412098D+00 -1.0052841606490D+00
64  6.3000000000000D-01  1.3786095451274D+00 -1.0765403648544D+00
65  6.4000000000000D-01  1.3605084568118D+00 -1.1413639079365D+00
66  6.5000000000000D-01  1.3408671349821D+00 -1.1990988052440D+00
67  6.6000000000000D-01  1.3197640798078D+00 -1.2491511504307D+00
68  6.7000000000000D-01  1.2972800882296D+00 -1.2910013458017D+00
69  6.8000000000000D-01  1.2734974338564D+00 -1.3242152837089D+00
70  6.9000000000000D-01  1.2484990864383D+00 -1.3484542176909D+00
71  7.0000000000000D-01  1.2223679849123D+00 -1.3634830864020D+00
72  7.1000000000000D-01  1.1951863767142D+00 -1.3691770835075D+00
73  7.2000000000000D-01  1.1670352344916D+00 -1.3655263016517D+00
74  7.3000000000000D-01  1.1379937595735D+00 -1.3526383177933D+00
75  7.4000000000000D-01  1.1081389795722D+00 -1.3307386298880D+00
76  7.5000000000000D-01  1.0775454453902D+00 -1.3001688997502D+00
77  7.6000000000000D-01  1.0462850306713D+00 -1.2613830037291D+00
78  7.7000000000000D-01  1.0144268344798D+00 -1.2149409396859D+00
79  7.8000000000000D-01  9.8203718571387D-01 -1.1615006852346D+00
80  7.9000000000000D-01  9.4917974553744D-01 -1.1018081470333D+00
81  8.0000000000000D-01  9.1591570198487D-01 -1.0366853831042D+00
82  8.1000000000000D-01  8.8230404890181D-01 -9.6701731877078D-01
83  8.2000000000000D-01  8.4840193958162D-01 -8.9373721094420D-01
84  8.3000000000000D-01  8.1426510387280D-01 -8.1781114436780D-01
85  8.4000000000000D-01  7.7994831620642D-01 -7.4022186636426D-01
86  8.5000000000000D-01  7.4550590095095D-01 -6.6195228306599D-01
87  8.6000000000000D-01  7.1099226076673D-01 -5.8396894963468D-01
88  8.7000000000000D-01  6.7646241321972D-01 -5.0720588932831D-01
89  8.8000000000000D-01  6.4197252083102D-01 -4.3254907134868D-01
90  8.9000000000000D-01  6.0758039998655D-01 -3.6082186525799D-01
91  9.0000000000000D-01  5.7334599470280D-01 -2.9277177060550D-01
92  9.1000000000000D-01  5.3933180212607D-01 -2.2905869463180D-01
93  9.2000000000000D-01  5.0560323781333D-01 -1.7024501904113D-01
94  9.3000000000000D-01  4.7222893027480D-01 -1.1678765951671D-01
95  9.4000000000000D-01  4.3928093591925D-01 -6.9032279685754D-02
96  9.5000000000000D-01  4.0683486739377D-01 -2.7209775516196D-02
97  9.6000000000000D-01  3.7496993030818D-01  8.5649023714005D-03
98  9.7000000000000D-01  3.4376886543306D-01  3.8291571177640D-02
99  9.8000000000000D-01  3.1331779561967D-01  6.2081316869057D-02
100  9.9000000000000D-01  2.8370597885202D-01  8.0150757709775D-02
101  1.0000000000000D+00  2.5502547091531D-01  9.2814202401277D-02
102  1.0100000000000D+00  2.2737070325724D-01  1.0047388258533D-01
103  1.0200000000000D+00  2.0083798344031D-01  1.0360848053562D-01
104  1.0300000000000D+00  1.7552492730813D-01  1.0276021123831D-01
105  1.0400000000000D+00  1.5152983346280D-01  9.8520750293652D-02
106  1.0500000000000D+00  1.2895101188836D-01  9.1516325371546D-02
107  1.0600000000000D+00  1.0788607944626D-01  8.2392307379167D-02
108  1.0700000000000D+00  8.8431236189207D-02  7.1797653357589D-02
109  1.0800000000000D+00  7.0680532890594D-02  6.0369540508752D-02
110  1.0900000000000D+00  5.4725157104707D-02  4.8718600951454D-02
111  1.1000000000000D+00  4.0652679676496D-02  3.7414781727577D-02
112  1.1100000000000D+00  2.8546592067181D-02  2.6975511261049D-02
113  1.1200000000000D+00  1.8485006426230D-02  1.7851017183693D-02
114  1.1300000000000D+00  1.0541022376242D-02  1.0410770057773D-02
115  1.1400000000000D+00  4.7377766702275D-03  4.8805997691391D-03
116  1.1500000000000D+00  1.2721316508025D-03  1.6021187768920D-03
117  1.1600000000000D+00 -2.7415803429925D-05  3.6019254111825D-04
118  1.1700000000000D+00 -9.0367547479006D-05  3.1946271410167D-05
119  1.1800000000000D+00  3.8908096815300D-05 -3.3611927177092D-06
120  1.1900000000000D+00 -2.6617860037489D-06  8.8289856838694D-07
121  1.2000000000000D+00 -4.0899697732209D-06  9.6510284034140D-07
122  1.2100000000000D+00  1.5156719656811D-07 -9.2837326432797D-07
123  1.2200000000000D+00  0.0000000000000D+00  0.0000000000000D+00
124  1.2300000000000D+00  0.0000000000000D+00  0.0000000000000D+00
125  1.2400000000000D+00  0.0000000000000D+00  0.0000000000000D+00
126  1.2500000000000D+00  0.0000000000000D+00  0.0000000000000D+00
127  1.2600000000000D+00  0.0000000000000D+00  0.0000000000000D+00
128  1.2700000000000D+00  0.0000000000000D+00  0.0000000000000D+00
129  1.2800000000000D+00  0.0000000000000D+00  0.0000000000000D+00
130  1.2900000000000D+00  0.0000000000000D+00  0.0000000000000D+00
131  1.3000000000000D+00  0.0000000000000D+00  0.0000000000000D+00
132  1.3100000000000D+00  0.0000000000000D+00  0.0000000000000D+00
133  1.3200000000000D+00  0.0000000000000D+00  0.0000000000000D+00
134  1.3300000000000D+00  0.0000000000000D+00  0.0000000000000D+00
135  1.3400000000000D+00  0.0000000000000D+00  0.0000000000000D+00
136  1.3500000000000D+00  0.0000000000000D+00  0.0000000000000D+00
137  1.3600000000000D+00  0.0000000000000D+00  0.0000000000000D+00
138  1.3700000000000D+00  0.0000000000000D+00  0.0000000000000D+00
139  1.3800000000000D+00  0.0000000000000D+00  0.0000000000000D+00
140  1.3900000000000D+00  0.0000000000000D+00  0.0000000000000D+00
141  1.4000000000000D+00  0.0000000000000D+00  0.0000000000000D+00
142  1.4100000000000D+00  0.0000000000000D+00  0.0000000000000D+00
143  1.4200000000000D+00  0.0000000000000D+00  0.0000000000000D+00
144  1.4300000000000D+00  0.0000000000000D+00  0.0000000000000D+00
145  1.4400000000000D+00  0.0000000000000D+00  0.0000000000000D+00
146  1.4500000000000D+00  0.0000000000000D+00  0.0000000000000D+00
147  1.4600000000000D+00  0.0000000000000D+00  0.0000000000000D+00
148  1.4700000000000D+00  0.0000000000000D+00  0.0000000000000D+00
149  1.4800000000000D+00  0.0000000000000D+00  0.0000000000000D+00
150  1.4900000000000D+00  0.0000000000000D+00  0.0000000000000D+00
151  1.5000000000000D+00  0.0000000000000D+00  0.0000000000000D+00
152  1.5100000000000D+00  0.0000000000000D+00  0.0000000000000D+00
153  1.5200000000000D+00  0.0000000000000D+00  0.0000000000000D+00
154  1.5300000000000D+00  0.0000000000000D+00  0.0000000000000D+00
155  1.5400000000000D+00  0.0000000000000D+00  0.0000000000000D+00
156  1.5500000000000D+00  0.0000000000000D+00  0.0000000000000D+00
157  1.5600000000000D+00  0.0000000000000D+00  0.0000000000000D+00
158  1.5700000000000D+00  0.0000000000000D+00  0.0000000000000D+00
159  1.5800000000000D+00  0.0000000000000D+00  0.0000000000000D+00
160  1.5900000000000D+00  0.0000000000000D+00  0.0000000000000D+00
161  1.6000000000000D+00  0.0000000000000D+00  0.0000000000000D+00
162  1.6100000000000D+00  0.0000000000000D+00  0.0000000000000D+00
163  1.6200000000000D+00  0.0000000000000D+00  0.0000000000000D+00
164  1.6300000000000D+00  0.0000000000000D+00  0.0000000000000D+00
165  1.6400000000000D+00  0.0000000000000D+00  0.0000000000000D+00
166  1.6500000000000D+00  0.0000000000000D+00  0.0000000000000D+00
167  1.6600000000000D+00  0.0000000000000D+00  0.0000000000000D+00
168  1.6700000000000D+00  0.0000000000000D+00  0.0000000000000D+00
169  1.6800000000000D+00  0.0000000000000D+00  0.0000000000000D+00
170  1.6900000000000D+00  0.0000000000000D+00  0.0000000000000D+00
171  1.7000000000000D+00  0.0000000000000D+00  0.0000000000000D+00
172  1.7100000000000D+00  0.0000000000000D+00  0.0000000000000D+00
173  1.7200000000000D+00  0.0000000000000D+00  0.0000000000000D+00
174  1.7300000000000D+00  0.0000000000000D+00  0.0000000000000D+00
175  1.7400000000000D+00  0.0000000000000D+00  0.0000000000000D+00
176  1.7500000000000D+00  0.0000000000000D+00  0.0000000000000D+00
177  1.7600000000000D+00  0.0000000000000D+00  0.0000000000000D+00
178  1.7700000000000D+00  0.0000000000000D+00  0.0000000000000D+00
179  1.7800000000000D+00  0.0000000000000D+00  0.0000000000000D+00
180  1.7900000000000D+00  0.0000000000000D+00  0.0000000000000D+00
181  1.8000000000000D+00  0.0000000000000D+00  0.0000000000000D+00
182  1.8100000000000D+00  0.0000000000000D+00  0.0000000000000D+00
183  1.8200000000000D+00  0.0000000000000D+00  0.0000000000000D+00
184  1.8300000000000D+00  0.0000000000000D+00  0.0000000000000D+00
185  1.8400000000000D+00  0.0000000000000D+00  0.0000000000000D+00
186  1.8500000000000D+00  0.0000000000000D+00  0.0000000000000D+00
187  1.8600000000000D+00  0.0000000000000D+00  0.0000000000000D+00
188  1.8700000000000D+00  0.0000000000000D+00  0.0000000000000D+00
189  1.8800000000000D+00  0.0000000000000D+00  0.0000000000000D+00
190  1.8900000000000D+00  0.0000000000000D+00  0.0000000000000D+00
191  1.9000000000000D+00  0.0000000000000D+00  0.0000000000000D+00
192  1.9100000000000D+00  0.0000000000000D+00  0.0000000000000D+00
193  1.9200000000000D+00  0.0000000000000D+00  0.0000000000000D+00
194  1.9300000000000D+00  0.0000000000000D+00  0.0000000000000D+00
195  1.9400000000000D+00  0.0000000000000D+00  0.0000000000000D+00
196  1.9500000000000D+00  0.0000000000000D+00  0.0000000000000D+00
197  1.9600000000000D+00  0.0000000000000D+00  0.0000000000000D+00
198  1.9700000000000D+00  0.0000000000000D+00  0.0000000000000D+00
199  1.9800000000000D+00  0.0000000000000D+00  0.0000000000000D+00
200  1.9900000000000D+00  0.0000000000000D+00  0.0000000000000D+00
201  2.0000000000000D+00  0.0000000000000D+00  0.0000000000000D+00
202  2.0100000000000D+00  0.0000000000000D+00  0.0000000000000D+00
203  2.0200000000000D+00  0.0000000000000D+00  0.0000000000000D+00
204  2.0300000000000D+00  0.0000000000000D+00  0.0000000000000D+00
205  2.0400000000000D+00  0.0000000000000D+00  0.0000000000000D+00
206  2.0500000000000D+00  0.0000000000000D+00  0.0000000000000D+00
207  2.0600000000000D+00  0.0000000000000D+00  0.0000000000000D+00
208  2.0700000000000D+00  0.0000000000000D+00  0.0000000000000D+00
209  2.0800000000000D+00  0.0000000000000D+00  0.0000000000000D+00
210  2.0900000000000D+00  0.0000000000000D+00  0.0000000000000D+00
211  2.1000000000000D+00  0.0000000000000D+00  0.0000000000000D+00
212  2.1100000000000D+00  0.0000000000000D+00  0.0000000000000D+00
213  2.1200000000000D+00  0.0000000000000D+00  0.0000000000000D+00
214  2.1300000000000D+00  0.0000000000000D+00  0.0000000000000D+00
215  2.1400000000000D+00  0.0000000000000D+00  0.0000000000000D+00
216  2.1500000000000D+00  0.0000000000000D+00  0.0000000000000D+00
217  2.1600000000000D+00  0.0000000000000D+00  0.0000000000000D+00
218  2.1700000000000D+00  0.0000000000000D+00  0.0000000000000D+00
219  2.1800000000000D+00  0.0000000000000D+00  0.0000000000000D+00
220  2.1900000000000D+00  0.0000000000000D+00  0.0000000000000D+00
221  2.2000000000000D+00  0.0000000000000D+00  0.0000000000000D+00
222  2.2100000000000D+00  0.0000000000000D+00  0.0000000000000D+00
223  2.2200000000000D+00  0.0000000000000D+00  0.0000000000000D+00
224  2.2300000000000D+00  0.0000000000000D+00  0.0000000000000D+00
225  2.2400000000000D+00  0.0000000000000D+00  0.0000000000000D+00
226  2.2500000000000D+00  0.0000000000000D+00  0.0000000000000D+00
227  2.2600000000000D+00  0.0000000000000D+00  0.0000000000000D+00
228  2.2700000000000D+00  0.0000000000000D+00  0.0000000000000D+00
229  2.2800000000000D+00  0.0000000000000D+00  0.0000000000000D+00
230  2.2900000000000D+00  0.0000000000000D+00  0.0000000000000D+00
231  2.3000000000000D+00  0.0000000000000D+00  0.0000000000000D+00
232  2.3100000000000D+00  0.0000000000000D+00  0.0000000000000D+00
233  2.3200000000000D+00  0.0000000000000D+00  0.0000000000000D+00
234  2.3300000000000D+00  0.0000000000000D+00  0.0000000000000D+00
235  2.3400000000000D+00  0.0000000000000D+00  0.0000000000000D+00
236  2.3500000000000D+00  0.0000000000000D+00  0.0000000000000D+00
237  2.3600000000000D+00  0.0000000000000D+00  0.0000000000000D+00
238  2.3700000000000D+00  0.0000000000000D+00  0.0000000000000D+00
239  2.3800000000000D+00  0.0000000000000D+00  0.0000000000000D+00
240  2.3900000000000D+00  0.0000000000000D+00  0.0000000000000D+00
241  2.4000000000000D+00  0.0000000000000D+00  0.0000000000000D+00
242  2.4100000000000D+00  0.0000000000000D+00  0.0000000000000D+00
243  2.4200000000000D+00  0.0000000000000D+00  0.0000000000000D+00
244  2.4300000000000D+00  0.0000000000000D+00  0.0000000000000D+00
245  2.4400000000000D+00  0.0000000000000D+00  0.0000000000000D+00
246  2.4500000000000D+00  0.0000000000000D+00  0.0000000000000D+00
247  2.4600000000000D+00  0.0000000000000D+00  0.0000000000000D+00
248  2.4700000000000D+00  0.0000000000000D+00  0.0000000000000D+00
249  2.4800000000000D+00  0.0000000000000D+00  0.0000000000000D+00
250  2.4900000000000D+00  0.0000000000000D+00  0.0000000000000D+00
251  2.5000000000000D+00  0.0000000000000D+00  0.0000000000000D+00
252  2.5100000000000D+00  0.0000000000000D+00  0.0000000000000D+00
253  2.5200000000000D+00  0.0000000000000D+00  0.0000000000000D+00
254  2.5300000000000D+00  0.0000000000000D+00  0.0000000000000D+00
255  2.5400000000000D+00  0.0000000000000D+00  0.0000000000000D+00
256  2.5500000000000D+00  0.0000000000000D+00  0.0000000000000D+00
257  2.5600000000000D+00  0.0000000000000D+00  0.0000000000000D+00
258  2.5700000000000D+00  0.0000000000000D+00  0.0000000000000D+00
259  2.5800000000000D+00  0.0000000000000D+00  0.0000000000000D+00
260  2.5900000000000D+00  0.0000000000000D+00  0.0000000000000D+00
261  2.6000000000000D+00  0.0000000000000D+00  0.0000000000000D+00
262  2.6100000000000D+00  0.0000000000000D+00  0.0000000000000D+00
263  2.6200000000000D+00  0.0000000000000D+00  0.0000000000000D+00
264  2.6300000000000D+00  0.0000000000000D+00  0.0000000000000D+00
265  2.6400000000000D+00  0.0000000000000D+00  0.0000000000000D+00
266  2.6500000000000D+00  0.0000000000000D+00  0.0000000000000D+00
267  2.6600000000000D+00  0.0000000000000D+00  0.0000000000000D+00
268  2.6700000000000D+00  0.0000000000000D+00  0.0000000000000D+00
269  2.6800000000000D+00  0.0000000000000D+00  0.0000000000000D+00
270  2.6900000000000D+00  0.0000000000000D+00  0.0000000000000D+00
271  2.7000000000000D+00  0.0000000000000D+00  0.0000000000000D+00
272  2.7100000000000D+00  0.0000000000000D+00  0.0000000000000D+00
273  2.7200000000000D+00  0.0000000000000D+00  0.0000000000000D+00
274  2.7300000000000D+00  0.0000000000000D+00  0.0000000000000D+00
275  2.7400000000000D+00  0.0000000000000D+00  0.0000000000000D+00
276  2.7500000000000D+00  0.0000000000000D+00  0.0000000000000D+00
277  2.7600000000000D+00  0.0000000000000D+00  0.0000000000000D+00
278  2.7700000000000D+00  0.0000000000000D+00  0.0000000000000D+00
279  2.7800000000000D+00  0.0000000000000D+00  0.0000000000000D+00
280  2.7900000000000D+00  0.0000000000000D+00  0.0000000000000D+00
281  2.8000000000000D+00  0.0000000000000D+00  0.0000000000000D+00
282  2.8100000000000D+00  0.0000000000000D+00  0.0000000000000D+00
283  2.8200000000000D+00  0.0000000000000D+00  0.0000000000000D+00
284  2.8300000000000D+00  0.0000000000000D+00  0.0000000000000D+00
285  2.8400000000000D+00  0.0000000000000D+00  0.0000000000000D+00
286  2.8500000000000D+00  0.0000000000000D+00  0.0000000000000D+00
287  2.8600000000000D+00  0.0000000000000D+00  0.0000000000000D+00
288  2.8700000000000D+00  0.0000000000000D+00  0.0000000000000D+00
289  2.8800000000000D+00  0.0000000000000D+00  0.0000000000000D+00
290  2.8900000000000D+00  0.0000000000000D+00  0.0000000000000D+00
291  2.9000000000000D+00  0.0000000000000D+00  0.0000000000000D+00
292  2.9100000000000D+00  0.0000000000000D+00  0.0000000000000D+00
293  2.9200000000000D+00  0.0000000000000D+00  0.0000000000000D+00
294  2.9300000000000D+00  0.0000000000000D+00  0.0000000000000D+00
295  2.9400000000000D+00  0.0000000000000D+00  0.0000000000000D+00
296  2.9500000000000D+00  0.0000000000000D+00  0.0000000000000D+00
297  2.9600000000000D+00  0.0000000000000D+00  0.0000000000000D+00
298  2.9700000000000D+00  0.0000000000000D+00  0.0000000000000D+00
299  2.9800000000000D+00  0.0000000000000D+00  0.0000000000000D+00
300  2.9900000000000D+00  0.0000000000000D+00  0.0000000000000D+00
301  3.0000000000000D+00  0.0000000000000D+00  0.0000000000000D+00
302  3.0100000000000D+00  0.0000000000000D+00  0.0000000000000D+00
303  3.0200000000000D+00  0.0000000000000D+00  0.0000000000000D+00
304  3.0300000000000D+00  0.0000000000000D+00  0.0000000000000D+00
305  3.0400000000000D+00  0.0000000000000D+00  0.0000000000000D+00
306  3.0500000000000D+00  0.0000000000000D+00  0.0000000000000D+00
307  3.0600000000000D+00  0.0000000000000D+00  0.0000000000000D+00
308  3.0700000000000D+00  0.0000000000000D+00  0.0000000000000D+00
309  3.0800000000000D+00  0.0000000000000D+00  0.0000000000000D+00
310  3.0900000000000D+00  0.0000000000000D+00  0.0000000000000D+00
311  3.1000000000000D+00  0.0000000000000D+00  0.0000000000000D+00
312  3.1100000000000D+00  0.0000000000000D+00  0.0000000000000D+00
313  3.1200000000000D+00  0.0000000000000D+00  0.0000000000000D+00
314  3.1300000000000D+00  0.0000000000000D+00  0.0000000000000D+00
315  3.1400000000000D+00  0.0000000000000D+00  0.0000000000000D+00
316  3.1500000000000D+00  0.0000000000000D+00  0.0000000000000D+00
317  3.1600000000000D+00  0.0000000000000D+00  0.0000000000000D+00
318  3.1700000000000D+00  0.0000000000000D+00  0.0000000000000D+00
319  3.1800000000000D+00  0.0000000000000D+00  0.0000000000000D+00
320  3.1900000000000D+00  0.0000000000000D+00  0.0000000000000D+00
321  3.2000000000000D+00  0.0000000000000D+00  0.0000000000000D+00
322  3.2100000000000D+00  0.0000000000000D+00  0.0000000000000D+00
323  3.2200000000000D+00  0.0000000000000D+00  0.0000000000000D+00
324  3.2300000000000D+00  0.0000000000000D+00  0.0000000000000D+00
325  3.2400000000000D+00  0.0000000000000D+00  0.0000000000000D+00
326  3.2500000000000D+00  0.0000000000000D+00  0.0000000000000D+00
327  3.2600000000000D+00  0.0000000000000D+00  0.0000000000000D+00
328  3.2700000000000D+00  0.0000000000000D+00  0.0000000000000D+00
329  3.2800000000000D+00  0.0000000000000D+00  0.0000000000000D+00
330  3.2900000000000D+00  0.0000000000000D+00  0.0000000000000D+00
331  3.3000000000000D+00  0.0000000000000D+00  0.0000000000000D+00
332  3.3100000000000D+00  0.0000000000000D+00  0.0000000000000D+00
333  3.3200000000000D+00  0.0000000000000D+00  0.0000000000000D+00
334  3.3300000000000D+00  0.0000000000000D+00  0.0000000000000D+00
335  3.3400000000000D+00  0.0000000000000D+00  0.0000000000000D+00
336  3.3500000000000D+00  0.0000000000000D+00  0.0000000000000D+00
337  3.3600000000000D+00  0.0000000000000D+00  0.0000000000000D+00
338  3.3700000000000D+00  0.0000000000000D+00  0.0000000000000D+00
339  3.3800000000000D+00  0.0000000000000D+00  0.0000000000000D+00
340  3.3900000000000D+00  0.0000000000000D+00  0.0000000000000D+00
341  3.4000000000000D+00  0.0000000000000D+00  0.0000000000000D+00
342  3.4100000000000D+00  0.0000000000000D+00  0.0000000000000D+00
343  3.4200000000000D+00  0.0000000000000D+00  0.0000000000000D+00
344  3.4300000000000D+00  0.0000000000000D+00  0.0000000000000D+00
345  3.4400000000000D+00  0.0000000000000D+00  0.0000000000000D+00
346  3.4500000000000D+00  0.0000000000000D+00  0.0000000000000D+00
347  3.4600000000000D+00  0.0000000000000D+00  0.0000000000000D+00
348  3.4700000000000D+00  0.0000000000000D+00  0.0000000000000D+00
349  3.4800000000000D+00  0.0000000000000D+00  0.0000000000000D+00
350  3.4900000000000D+00  0.0000000000000D+00  0.0000000000000D+00
351  3.5000000000000D+00  0.0000000000000D+00  0.0000000000000D+00
352  3.5100000000000D+00  0.0000000000000D+00  0.0000000000000D+00
353  3.5200000000000D+00  0.0000000000000D+00  0.0000000000000D+00
354  3.5300000000000D+00  0.0000000000000D+00  0.0000000000000D+00
355  3.5400000000000D+00  0.0000000000000D+00  0.0000000000000D+00
356  3.5500000000000D+00  0.0000000000000D+00  0.0000000000000D+00
357  3.5600000000000D+00  0.0000000000000D+00  0.0000000000000D+00
358  3.5700000000000D+00  0.0000000000000D+00  0.0000000000000D+00
359  3.5800000000000D+00  0.0000000000000D+00  0.0000000000000D+00
360  3.5900000000000D+00  0.0000000000000D+00  0.0000000000000D+00
361  3.6000000000000D+00  0.0000000000000D+00  0.0000000000000D+00
362  3.6100000000000D+00  0.0000000000000D+00  0.0000000000000D+00
363  3.6200000000000D+00  0.0000000000000D+00  0.0000000000000D+00
364  3.6300000000000D+00  0.0000000000000D+00  0.0000000000000D+00
365  3.6400000000000D+00  0.0000000000000D+00  0.0000000000000D+00
366  3.6500000000000D+00  0.0000000000000D+00  0.0000000000000D+00
367  3.6600000000000D+00  0.0000000000000D+00  0.0000000000000D+00
368  3.6700000000000D+00  0.0000000000000D+00  0.0000000000000D+00
369  3.6800000000000D+00  0.0000000000000D+00  0.0000000000000D+00
370  3.6900000000000D+00  0.0000000000000D+00  0.0000000000000D+00
371  3.7000000000000D+00  0.0000000000000D+00  0.0000000000000D+00
372  3.7100000000000D+00  0.0000000000000D+00  0.0000000000000D+00
373  3.7200000000000D+00  0.0000000000000D+00  0.0000000000000D+00
374  3.7300000000000D+00  0.0000000000000D+00  0.0000000000000D+00
375  3.7400000000000D+00  0.0000000000000D+00  0.0000000000000D+00
376  3.7500000000000D+00  0.0000000000000D+00  0.0000000000000D+00
377  3.7600000000000D+00  0.0000000000000D+00  0.0000000000000D+00
378  3.7700000000000D+00  0.0000000000000D+00  0.0000000000000D+00
379  3.7800000000000D+00  0.0000000000000D+00  0.0000000000000D+00
380  3.7900000000000D+00  0.0000000000000D+00  0.0000000000000D+00
381  3.8000000000000D+00  0.0000000000000D+00  0.0000000000000D+00
382  3.8100000000000D+00  0.0000000000000D+00  0.0000000000000D+00
383  3.8200000000000D+00  0.0000000000000D+00  0.0000000000000D+00
384  3.8300000000000D+00  0.0000000000000D+00  0.0000000000000D+00
385  3.8400000000000D+00  0.0000000000000D+00  0.0000000000000D+00
386  3.8500000000000D+00  0.0000000000000D+00  0.0000000000000D+00
387  3.8600000000000D+00  0.0000000000000D+00  0.0000000000000D+00
388  3.8700000000000D+00  0.0000000000000D+00  0.0000000000000D+00
389  3.8800000000000D+00  0.0000000000000D+00  0.0000000000000D+00
390  3.8900000000000D+00  0.0000000000000D+00  0.0000000000000D+00
391  3.9000000000000D+00  0.0000000000000D+00  0.0000000000000D+00
392  3.9100000000000D+00  0.0000000000000D+00  0.0000000000000D+00
393  3.9200000000000D+00  0.0000000000000D+00  0.0000000000000D+00
394  3.9300000000000D+00  0.0000000000000D+00  0.0000000000000D+00
395  3.9400000000000D+00  0.0000000000000D+00  0.0000000000000D+00
396  3.9500000000000D+00  0.0000000000000D+00  0.0000000000000D+00
397  3.9600000000000D+00  0.0000000000000D+00  0.0000000000000D+00
398  3.9700000000000D+00  0.0000000000000D+00  0.0000000000000D+00
399  3.9800000000000D+00  0.0000000000000D+00  0.0000000000000D+00
400  3.9900000000000D+00  0.0000000000000D+00  0.0000000000000D+00
1                        -6.5027964915329D+00 -2.5012582938891D+00
1  0.0000000000000D+00  5.2008018724958D-10 -1.0512305401167D-09
2  1.0000000000000D-02  1.9832878938486D-03 -8.7967101828720D-04
3  2.0000000000000D-02  7.9237212912339D-03 -3.5101016433897D-03
4  3.0000000000000D-02  1.7793055716704D-02 -7.8656098863048D-03
5  4.0000000000000D-02  3.1544371354828D-02 -1.3903609523157D-02
6  5.0000000000000D-02  4.9112303539057D-02 -2.1564933720929D-02
7  6.0000000000000D-02  7.0413363491844D-02 -3.0774284114656D-02
8  7.0000000000000D-02  9.5346347392642D-02 -4.1440801391038D-02
9  8.0000000000000D-02  1.2379283133031D-01 -5.3458752382205D-02
10  9.0000000000000D-02  1.5561774919813D-01 -6.6708327677706D-02
11  1.0000000000000D-01  1.9067005011698D-01 -8.1056542833805D-02
12  1.1000000000000D-01  2.2878343152950D-01 -9.6358235406354D-02
13  1.2000000000000D-01  2.6977714369866D-01 -1.1245714926634D-01
14  1.3000000000000D-01  3.1345686097095D-01 -1.2918709698333D-01
15  1.4000000000000D-01  3.5961561483067D-01 -1.4637319048801D-01
16  1.5000000000000D-01  4.0803478347897D-01 -1.6383312975660D-01
17  1.6000000000000D-01  4.5848513242187D-01 -1.8137853890074D-01
18  1.7000000000000D-01  5.1072790034556D-01 -1.9881633879905D-01
19  1.8000000000000D-01  5.6451592439682D-01 -2.1595014527269D-01
20  1.9000000000000D-01  6.1959479887020D-01 -2.3258168178597D-01
21  2.0000000000000D-01  6.7570406123197D-01 -2.4851219574265D-01
22  2.1000000000000D-01  7.3257839938282D-01 -2.6354386764681D-01
23  2.2000000000000D-01  7.8994887407484D-01 -2.7748120269801D-01
24  2.3000000000000D-01  8.4754415045251D-01 -2.9013239478984D-01
25  2.4000000000000D-01  9.0509173277874D-01 -3.0131065337053D-01
26  2.5000000000000D-01  9.6231919653399D-01 -3.1083548419691D-01
27  2.6000000000000D-01  1.0189554122349D+00 -3.1853391565897D-01
28  2.7000000000000D-01  1.0747317555065D+00 -3.2424166306266D-01
29  2.8000000000000D-01  1.1293832981538D+00 -3.2780422402144D-01
30  2.9000000000000D-01  1.1826499752141D+00 -3.2907789891303D-01
31  3.0000000000000D-01  1.2342777232198D+00 -3.2793073119390D-01
32  3.1000000000000D-01  1.2840195851705D+00 -3.2424336321967D-01
33  3.2000000000000D-01  1.3316367779834D+00 -3.1790980408266D-01
34  3.3000000000000D-01  1.3768997184772D+00 -3.0883810683679D-01
35  3.4000000000000D-01  1.4195890042236D+00 -2.9695095332391D-01
36  3.5000000000000D-01  1.4594963458863D+00 -2.8218614563366D-01
37  3.6000000000000D-01  1.4964254479446D+00 -2.6449700401111D-01
38  3.7000000000000D-01  1.5301928349710D+00 -2.4385267176320D-01
39  3.8000000000000D-01  1.5606286208953D+00 -2.2023832839850D-01
40  3.9000000000000D-01  1.5875772189380D+00 -1.9365531285731D-01
41  4.0000000000000D-01  1.6108979901358D+00 -1.6412115924522D-01
42  4.1000000000000D-01  1.6304658286057D+00 -1.3166954796682D-01
43  4.2000000000000D-01  1.6461716819044D+00 -9.6350175565462D-02