Mn    ONCVPSP-3.3.0  r_core=   1.41250   1.20960   1.61055
25.0000     15.0000      180430    zatom,zion,pspd
8 -116133   2     4   600     0    pspcod,pspxc,lmax,lloc,mmax,r2well
5.99000000  4.00000000  0.00000000    rchrg fchrg qchrg
2     3     2     0    nproj
3     1           extension_switch
4     2     0    nprojso
0                         1.5540389535219D+00  9.2318366545323D+00
1  0.0000000000000D+00 -6.7427172699419D-10  3.5855329816314D-10
2  1.0000000000000D-02  1.2794943670955D-03  7.9920009091130D-02
3  2.0000000000000D-02  2.5466131889895D-03  1.5968127047803D-01
4  3.0000000000000D-02  3.7900923376000D-03  2.3912485829302D-01
5  4.0000000000000D-02  5.0008744763978D-03  3.1809149792657D-01
6  5.0000000000000D-02  6.1731725218970D-03  3.9642141052701D-01
7  6.0000000000000D-02  7.3054856652603D-03  4.7395417988908D-01
8  7.0000000000000D-02  8.4015529381938D-03  5.5052864876969D-01
9  8.0000000000000D-02  9.4712299815800D-03  6.2598285131112D-01
10  9.0000000000000D-02  1.0531275506707D-02  7.0015398780962D-01
11  1.0000000000000D-01  1.1606034919903D-02  7.7287844754671D-01
12  1.1000000000000D-01  1.2728009702970D-02  8.4399188480507D-01
13  1.2000000000000D-01  1.3938302393740D-02  9.1332935252735D-01
14  1.3000000000000D-01  1.5286928382004D-02  9.8072549735019D-01
15  1.4000000000000D-01  1.6832987213021D-02  1.0460148189650D+00
16  1.5000000000000D-01  1.8644687660294D-02  1.1090319959277D+00
17  1.6000000000000D-01  2.0799222476586D-02  1.1696122791727D+00
18  1.7000000000000D-01  2.3382490441230D-02  1.2275919535859D+00
19  1.8000000000000D-01  2.6488665077214D-02  1.2828088670713D+00
20  1.9000000000000D-01  3.0219611194996D-02  1.3351030256117D+00
21  2.0000000000000D-01  3.4684152215616D-02  1.3843172518889D+00
22  2.1000000000000D-01  3.9997193014525D-02  1.4302979040941D+00
23  2.2000000000000D-01  4.6278704791996D-02  1.4728956506517D+00
24  2.3000000000000D-01  5.3652580198507D-02  1.5119662956860D+00
25  2.4000000000000D-01  6.2245368605365D-02  1.5473716492125D+00
26  2.5000000000000D-01  7.2184902995425D-02  1.5789804352270D+00
27  2.6000000000000D-01  8.3598831438103D-02  1.6066692301142D+00
28  2.7000000000000D-01  9.6613067491147D-02  1.6303234231093D+00
29  2.8000000000000D-01  1.1135017512269D-01  1.6498381899300D+00
30  2.9000000000000D-01  1.2792770485627D-01  1.6651194701572D+00
31  3.0000000000000D-01  1.4645649879519D-01  1.6760849384965D+00
32  3.1000000000000D-01  1.6703898296817D-01  1.6826649596936D+00
33  3.2000000000000D-01  1.8976746604519D-01  1.6848035166201D+00
34  3.3000000000000D-01  2.1472246388999D-01  1.6824591008955D+00
35  3.4000000000000D-01  2.4197106963820D-01  1.6756055553646D+00
36  3.5000000000000D-01  2.7156538900857D-01  1.6642328578171D+00
37  3.6000000000000D-01  3.0354106036850D-01  1.6483478355158D+00
38  3.7000000000000D-01  3.3791587867798D-01  1.6279748003940D+00
39  3.8000000000000D-01  3.7468854183181D-01  1.6031560951897D+00
40  3.9000000000000D-01  4.1383753710720D-01  1.5739525413040D+00
41  4.0000000000000D-01  4.5532018440915D-01  1.5404437798005D+00
42  4.1000000000000D-01  4.9907185179317D-01  1.5027284976975D+00
43  4.2000000000000D-01  5.4500535734504D-01  1.4609245325426D+00
44  4.3000000000000D-01  5.9301056991746D-01  1.4151688491869D+00
45  4.4000000000000D-01  6.4295421947941D-01  1.3656173837007D+00
46  4.5000000000000D-01  6.9467992593750D-01  1.3124447504651D+00
47  4.6000000000000D-01  7.4800845325760D-01  1.2558438096475D+00
48  4.7000000000000D-01  8.0273819356676D-01  1.1960250934961D+00
49  4.8000000000000D-01  8.5864588366979D-01  1.1332160911670D+00
50  4.9000000000000D-01  9.1548755409302D-01  1.0676603931141D+00
51  5.0000000000000D-01  9.7299970839197D-01  9.9961669741082D-01
52  5.1000000000000D-01  1.0309007280530D+00  9.2935768172811D-01
53  5.2000000000000D-01  1.0888924959068D+00  8.5716874604192D-01
54  5.3000000000000D-01  1.1466622285777D+00  7.8334663247996D-01
55  5.4000000000000D-01  1.2038845061425D+00  7.0819793002521D-01
56  5.5000000000000D-01  1.2602234848919D+00  6.3203747305662D-01
57  5.6000000000000D-01  1.3153352769014D+00  5.5518664391469D-01
58  5.7000000000000D-01  1.3688704780507D+00  4.7797159081727D-01
59  5.8000000000000D-01  1.4204768242084D+00  4.0072137350280D-01
60  5.9000000000000D-01  1.4698019535379D+00  3.2376604993831D-01
61  6.0000000000000D-01  1.5164962513142D+00  2.4743471827650D-01
62  6.1000000000000D-01  1.5602157522765D+00  1.7205352898099D-01
63  6.2000000000000D-01  1.6006250744080D+00  9.7943682639293D-02
64  6.3000000000000D-01  1.6374003571428D+00  2.5419429450438D-02
65  6.4000000000000D-01  1.6702321763631D+00 -4.5213913304973D-02
66  6.5000000000000D-01  1.6988284081860D+00 -1.1366190933465D-01
67  6.6000000000000D-01  1.7229170134503D+00 -1.7964290045130D-01
68  6.7000000000000D-01  1.7422487150104D+00 -2.4288983638861D-01
69  6.8000000000000D-01  1.7565995404275D+00 -3.0315202127107D-01
70  6.9000000000000D-01  1.7657732034217D+00 -3.6019676115912D-01
71  7.0000000000000D-01  1.7696032985025D+00 -4.1381089771250D-01
72  7.1000000000000D-01  1.7679552845373D+00 -4.6380221379459D-01
73  7.2000000000000D-01  1.7607282346138D+00 -5.1000069776457D-01
74  7.3000000000000D-01  1.7478563314249D+00 -5.5225965427788D-01
75  7.4000000000000D-01  1.7293100895067D+00 -5.9045665061881D-01
76  7.5000000000000D-01  1.7050972879929D+00 -6.2449428891713D-01
77  7.6000000000000D-01  1.6752636000832D+00 -6.5430079604202D-01
78  7.7000000000000D-01  1.6398929081380D+00 -6.7983042450761D-01
79  7.8000000000000D-01  1.5991072961823D+00 -7.0106365934920D-01
80  7.9000000000000D-01  1.5530667145932D+00 -7.1800722762266D-01
81  8.0000000000000D-01  1.5019683148458D+00 -7.3069390893268D-01
82  8.1000000000000D-01  1.4460454553424D+00 -7.3918214717493D-01
83  8.2000000000000D-01  1.3855663825421D+00 -7.4355546548184D-01
84  8.3000000000000D-01  1.3208325947997D+00 -7.4392168816270D-01
85  8.4000000000000D-01  1.2521768994717D+00 -7.4041197521184D-01
86  8.5000000000000D-01  1.1799611769371D+00 -7.3317967670298D-01
87  8.6000000000000D-01  1.1045738681596D+00 -7.2239901607691D-01
88  8.7000000000000D-01  1.0264272052640D+00 -7.0826361294258D-01
89  8.8000000000000D-01  9.4595420727702D-01 -6.9098485753379D-01
90  8.9000000000000D-01  8.6360546565904D-01 -6.7079015037549D-01
91  9.0000000000000D-01  7.7984574650377D-01 -6.4792102200076D-01
92  9.1000000000000D-01  6.9515043827404D-01 -6.2263114870679D-01
93  9.2000000000000D-01  6.1000187565698D-01 -5.9518428133198D-01
94  9.3000000000000D-01  5.2488557153261D-01 -5.6585210486490D-01
95  9.4000000000000D-01  4.4028639014231D-01 -5.3491204734968D-01
96  9.5000000000000D-01  3.5668469529519D-01 -5.0264505701943D-01
97  9.6000000000000D-01  2.7455250786497D-01 -4.6933336687154D-01
98  9.7000000000000D-01  1.9434970687987D-01 -4.3525826598174D-01
99  9.8000000000000D-01  1.1652030820125D-01 -4.0069789674036D-01
100  9.9000000000000D-01  4.1488854121986D-02 -3.6592509688455D-01
101  1.0000000000000D+00 -3.0343053806230D-02 -3.3120530469482D-01
102  1.0100000000000D+00 -9.8600047766884D-02 -2.9679454503232D-01
103  1.0200000000000D+00 -1.6293608330198D-01 -2.6293751298393D-01
104  1.0300000000000D+00 -2.2303729829449D-01 -2.2986577087814D-01
105  1.0400000000000D+00 -2.7862461645683D-01 -1.9779607316266D-01
106  1.0500000000000D+00 -3.2945607305368D-01 -1.6692883226731D-01
107  1.0600000000000D+00 -3.7532884341224D-01 -1.3744673707378D-01
108  1.0700000000000D+00 -4.1608095790873D-01 -1.0951353394000D-01
109  1.0800000000000D+00 -4.5159269037394D-01 -8.3272978484131D-02
110  1.0900000000000D+00 -4.8178761009997D-01 -5.8847964594631D-02
111  1.1000000000000D+00 -5.0663329152717D-01 -3.6339835034596D-02
112  1.1100000000000D+00 -5.2614167897006D-01 -1.5827876238474D-02
113  1.1200000000000D+00 -5.4036910781035D-01  2.6310023031882D-03
114  1.1300000000000D+00 -5.4941598652627D-01  1.9002405268969D-02
115  1.1400000000000D+00 -5.5342614839290D-01  3.3274408967164D-02
116  1.1500000000000D+00 -5.5258588468618D-01  4.5457344292838D-02
117  1.1600000000000D+00 -5.4712267511606D-01  5.5583412572870D-02
118  1.1700000000000D+00 -5.3730363783241D-01  6.3706144780750D-02
119  1.1800000000000D+00 -5.2343369363781D-01  6.9899703439799D-02
120  1.1900000000000D+00 -5.0585358833817D-01  7.4258090397903D-02
121  1.2000000000000D+00 -4.8493720127218D-01  7.6894017732576D-02
122  1.2100000000000D+00 -4.6109047095769D-01  7.7938438348899D-02
123  1.2200000000000D+00 -4.3474568429107D-01  7.7538083953633D-02
124  1.2300000000000D+00 -4.0635081639575D-01  7.5850867413137D-02
125  1.2400000000000D+00 -3.7635846162466D-01  7.3040918620148D-02
126  1.2500000000000D+00 -3.4521940047492D-01  6.9275514639272D-02
127  1.2600000000000D+00 -3.1338013818023D-01  6.4723637876775D-02
128  1.2700000000000D+00 -2.8127863264044D-01  5.9553788512396D-02
129  1.2800000000000D+00 -2.4934066348099D-01  5.3932059908832D-02
130  1.2900000000000D+00 -2.1797617181453D-01  4.8020207850411D-02
131  1.3000000000000D+00 -1.8757576982157D-01  4.1973799820221D-02
132  1.3100000000000D+00 -1.5850741210966D-01  3.5940445155112D-02
133  1.3200000000000D+00 -1.3111326500220D-01  3.0058124870146D-02
134  1.3300000000000D+00 -1.0570680516262D-01  2.4453638149465D-02
135  1.3400000000000D+00 -8.2570173421998D-02  1.9241179534304D-02
136  1.3500000000000D+00 -6.1951807716181D-02  1.4521059769853D-02
137  1.3600000000000D+00 -4.4064380682744D-02  1.0378584157881D-02
138  1.3700000000000D+00 -2.9092672894414D-02  6.8854252896945D-03
139  1.3800000000000D+00 -1.7135867737463D-02  4.0851143646789D-03
140  1.3900000000000D+00 -8.2820398362468D-03  2.0105670061581D-03
141  1.4000000000000D+00 -2.8680814165026D-03  7.5213634457564D-04
142  1.4100000000000D+00 -4.9849668821202D-04  2.0166859915465D-04
143  1.4200000000000D+00  8.3115748210766D-05  2.7435444174601D-05
144  1.4300000000000D+00 -5.3230907349168D-06 -8.5012586434200D-08
145  1.4400000000000D+00 -3.9837659400534D-05  1.8982487475797D-06
146  1.4500000000000D+00  4.2886685839573D-06  2.9235168621370D-07
147  1.4600000000000D+00  4.4678999445273D-06  1.3175995354830D-07
148  1.4700000000000D+00  6.2796913284513D-07 -3.5838462667511D-07
149  1.4800000000000D+00  1.7393565317017D-07 -9.9265809203805D-08
150  1.4900000000000D+00  0.0000000000000D+00  0.0000000000000D+00
151  1.5000000000000D+00  0.0000000000000D+00  0.0000000000000D+00
152  1.5100000000000D+00  0.0000000000000D+00  0.0000000000000D+00
153  1.5200000000000D+00  0.0000000000000D+00  0.0000000000000D+00
154  1.5300000000000D+00  0.0000000000000D+00  0.0000000000000D+00
155  1.5400000000000D+00  0.0000000000000D+00  0.0000000000000D+00
156  1.5500000000000D+00  0.0000000000000D+00  0.0000000000000D+00
157  1.5600000000000D+00  0.0000000000000D+00  0.0000000000000D+00
158  1.5700000000000D+00  0.0000000000000D+00  0.0000000000000D+00
159  1.5800000000000D+00  0.0000000000000D+00  0.0000000000000D+00
160  1.5900000000000D+00  0.0000000000000D+00  0.0000000000000D+00
161  1.6000000000000D+00  0.0000000000000D+00  0.0000000000000D+00
162  1.6100000000000D+00  0.0000000000000D+00  0.0000000000000D+00
163  1.6200000000000D+00  0.0000000000000D+00  0.0000000000000D+00
164  1.6300000000000D+00  0.0000000000000D+00  0.0000000000000D+00
165  1.6400000000000D+00  0.0000000000000D+00  0.0000000000000D+00
166  1.6500000000000D+00  0.0000000000000D+00  0.0000000000000D+00
167  1.6600000000000D+00  0.0000000000000D+00  0.0000000000000D+00
168  1.6700000000000D+00  0.0000000000000D+00  0.0000000000000D+00
169  1.6800000000000D+00  0.0000000000000D+00  0.0000000000000D+00
170  1.6900000000000D+00  0.0000000000000D+00  0.0000000000000D+00
171  1.7000000000000D+00  0.0000000000000D+00  0.0000000000000D+00
172  1.7100000000000D+00  0.0000000000000D+00  0.0000000000000D+00
173  1.7200000000000D+00  0.0000000000000D+00  0.0000000000000D+00
174  1.7300000000000D+00  0.0000000000000D+00  0.0000000000000D+00
175  1.7400000000000D+00  0.0000000000000D+00  0.0000000000000D+00
176  1.7500000000000D+00  0.0000000000000D+00  0.0000000000000D+00
177  1.7600000000000D+00  0.0000000000000D+00  0.0000000000000D+00
178  1.7700000000000D+00  0.0000000000000D+00  0.0000000000000D+00
179  1.7800000000000D+00  0.0000000000000D+00  0.0000000000000D+00
180  1.7900000000000D+00  0.0000000000000D+00  0.0000000000000D+00
181  1.8000000000000D+00  0.0000000000000D+00  0.0000000000000D+00
182  1.8100000000000D+00  0.0000000000000D+00  0.0000000000000D+00
183  1.8200000000000D+00  0.0000000000000D+00  0.0000000000000D+00
184  1.8300000000000D+00  0.0000000000000D+00  0.0000000000000D+00
185  1.8400000000000D+00  0.0000000000000D+00  0.0000000000000D+00
186  1.8500000000000D+00  0.0000000000000D+00  0.0000000000000D+00
187  1.8600000000000D+00  0.0000000000000D+00  0.0000000000000D+00
188  1.8700000000000D+00  0.0000000000000D+00  0.0000000000000D+00
189  1.8800000000000D+00  0.0000000000000D+00  0.0000000000000D+00
190  1.8900000000000D+00  0.0000000000000D+00  0.0000000000000D+00
191  1.9000000000000D+00  0.0000000000000D+00  0.0000000000000D+00
192  1.9100000000000D+00  0.0000000000000D+00  0.0000000000000D+00
193  1.9200000000000D+00  0.0000000000000D+00  0.0000000000000D+00
194  1.9300000000000D+00  0.0000000000000D+00  0.0000000000000D+00
195  1.9400000000000D+00  0.0000000000000D+00  0.0000000000000D+00
196  1.9500000000000D+00  0.0000000000000D+00  0.0000000000000D+00
197  1.9600000000000D+00  0.0000000000000D+00  0.0000000000000D+00
198  1.9700000000000D+00  0.0000000000000D+00  0.0000000000000D+00
199  1.9800000000000D+00  0.0000000000000D+00  0.0000000000000D+00
200  1.9900000000000D+00  0.0000000000000D+00  0.0000000000000D+00
201  2.0000000000000D+00  0.0000000000000D+00  0.0000000000000D+00
202  2.0100000000000D+00  0.0000000000000D+00  0.0000000000000D+00
203  2.0200000000000D+00  0.0000000000000D+00  0.0000000000000D+00
204  2.0300000000000D+00  0.0000000000000D+00  0.0000000000000D+00
205  2.0400000000000D+00  0.0000000000000D+00  0.0000000000000D+00
206  2.0500000000000D+00  0.0000000000000D+00  0.0000000000000D+00
207  2.0600000000000D+00  0.0000000000000D+00  0.0000000000000D+00
208  2.0700000000000D+00  0.0000000000000D+00  0.0000000000000D+00
209  2.0800000000000D+00  0.0000000000000D+00  0.0000000000000D+00
210  2.0900000000000D+00  0.0000000000000D+00  0.0000000000000D+00
211  2.1000000000000D+00  0.0000000000000D+00  0.0000000000000D+00
212  2.1100000000000D+00  0.0000000000000D+00  0.0000000000000D+00
213  2.1200000000000D+00  0.0000000000000D+00  0.0000000000000D+00
214  2.1300000000000D+00  0.0000000000000D+00  0.0000000000000D+00
215  2.1400000000000D+00  0.0000000000000D+00  0.0000000000000D+00
216  2.1500000000000D+00  0.0000000000000D+00  0.0000000000000D+00
217  2.1600000000000D+00  0.0000000000000D+00  0.0000000000000D+00
218  2.1700000000000D+00  0.0000000000000D+00  0.0000000000000D+00
219  2.1800000000000D+00  0.0000000000000D+00  0.0000000000000D+00
220  2.1900000000000D+00  0.0000000000000D+00  0.0000000000000D+00
221  2.2000000000000D+00  0.0000000000000D+00  0.0000000000000D+00
222  2.2100000000000D+00  0.0000000000000D+00  0.0000000000000D+00
223  2.2200000000000D+00  0.0000000000000D+00  0.0000000000000D+00
224  2.2300000000000D+00  0.0000000000000D+00  0.0000000000000D+00
225  2.2400000000000D+00  0.0000000000000D+00  0.0000000000000D+00
226  2.2500000000000D+00  0.0000000000000D+00  0.0000000000000D+00
227  2.2600000000000D+00  0.0000000000000D+00  0.0000000000000D+00
228  2.2700000000000D+00  0.0000000000000D+00  0.0000000000000D+00
229  2.2800000000000D+00  0.0000000000000D+00  0.0000000000000D+00
230  2.2900000000000D+00  0.0000000000000D+00  0.0000000000000D+00
231  2.3000000000000D+00  0.0000000000000D+00  0.0000000000000D+00
232  2.3100000000000D+00  0.0000000000000D+00  0.0000000000000D+00
233  2.3200000000000D+00  0.0000000000000D+00  0.0000000000000D+00
234  2.3300000000000D+00  0.0000000000000D+00  0.0000000000000D+00
235  2.3400000000000D+00  0.0000000000000D+00  0.0000000000000D+00
236  2.3500000000000D+00  0.0000000000000D+00  0.0000000000000D+00
237  2.3600000000000D+00  0.0000000000000D+00  0.0000000000000D+00
238  2.3700000000000D+00  0.0000000000000D+00  0.0000000000000D+00
239  2.3800000000000D+00  0.0000000000000D+00  0.0000000000000D+00
240  2.3900000000000D+00  0.0000000000000D+00  0.0000000000000D+00
241  2.4000000000000D+00  0.0000000000000D+00  0.0000000000000D+00
242  2.4100000000000D+00  0.0000000000000D+00  0.0000000000000D+00
243  2.4200000000000D+00  0.0000000000000D+00  0.0000000000000D+00
244  2.4300000000000D+00  0.0000000000000D+00  0.0000000000000D+00
245  2.4400000000000D+00  0.0000000000000D+00  0.0000000000000D+00
246  2.4500000000000D+00  0.0000000000000D+00  0.0000000000000D+00
247  2.4600000000000D+00  0.0000000000000D+00  0.0000000000000D+00
248  2.4700000000000D+00  0.0000000000000D+00  0.0000000000000D+00
249  2.4800000000000D+00  0.0000000000000D+00  0.0000000000000D+00
250  2.4900000000000D+00  0.0000000000000D+00  0.0000000000000D+00
251  2.5000000000000D+00  0.0000000000000D+00  0.0000000000000D+00
252  2.5100000000000D+00  0.0000000000000D+00  0.0000000000000D+00
253  2.5200000000000D+00  0.0000000000000D+00  0.0000000000000D+00
254  2.5300000000000D+00  0.0000000000000D+00  0.0000000000000D+00
255  2.5400000000000D+00  0.0000000000000D+00  0.0000000000000D+00
256  2.5500000000000D+00  0.0000000000000D+00  0.0000000000000D+00
257  2.5600000000000D+00  0.0000000000000D+00  0.0000000000000D+00
258  2.5700000000000D+00  0.0000000000000D+00  0.0000000000000D+00
259  2.5800000000000D+00  0.0000000000000D+00  0.0000000000000D+00
260  2.5900000000000D+00  0.0000000000000D+00  0.0000000000000D+00
261  2.6000000000000D+00  0.0000000000000D+00  0.0000000000000D+00
262  2.6100000000000D+00  0.0000000000000D+00  0.0000000000000D+00
263  2.6200000000000D+00  0.0000000000000D+00  0.0000000000000D+00
264  2.6300000000000D+00  0.0000000000000D+00  0.0000000000000D+00
265  2.6400000000000D+00  0.0000000000000D+00  0.0000000000000D+00
266  2.6500000000000D+00  0.0000000000000D+00  0.0000000000000D+00
267  2.6600000000000D+00  0.0000000000000D+00  0.0000000000000D+00
268  2.6700000000000D+00  0.0000000000000D+00  0.0000000000000D+00
269  2.6800000000000D+00  0.0000000000000D+00  0.0000000000000D+00
270  2.6900000000000D+00  0.0000000000000D+00  0.0000000000000D+00
271  2.7000000000000D+00  0.0000000000000D+00  0.0000000000000D+00
272  2.7100000000000D+00  0.0000000000000D+00  0.0000000000000D+00
273  2.7200000000000D+00  0.0000000000000D+00  0.0000000000000D+00
274  2.7300000000000D+00  0.0000000000000D+00  0.0000000000000D+00
275  2.7400000000000D+00  0.0000000000000D+00  0.0000000000000D+00
276  2.7500000000000D+00  0.0000000000000D+00  0.0000000000000D+00
277  2.7600000000000D+00  0.0000000000000D+00  0.0000000000000D+00
278  2.7700000000000D+00  0.0000000000000D+00  0.0000000000000D+00
279  2.7800000000000D+00  0.0000000000000D+00  0.0000000000000D+00
280  2.7900000000000D+00  0.0000000000000D+00  0.0000000000000D+00
281  2.8000000000000D+00  0.0000000000000D+00  0.0000000000000D+00
282  2.8100000000000D+00  0.0000000000000D+00  0.0000000000000D+00
283  2.8200000000000D+00  0.0000000000000D+00  0.0000000000000D+00
284  2.8300000000000D+00  0.0000000000000D+00  0.0000000000000D+00
285  2.8400000000000D+00  0.0000000000000D+00  0.0000000000000D+00
286  2.8500000000000D+00  0.0000000000000D+00  0.0000000000000D+00
287  2.8600000000000D+00  0.0000000000000D+00  0.0000000000000D+00
288  2.8700000000000D+00  0.0000000000000D+00  0.0000000000000D+00
289  2.8800000000000D+00  0.0000000000000D+00  0.0000000000000D+00
290  2.8900000000000D+00  0.0000000000000D+00  0.0000000000000D+00
291  2.9000000000000D+00  0.0000000000000D+00  0.0000000000000D+00
292  2.9100000000000D+00  0.0000000000000D+00  0.0000000000000D+00
293  2.9200000000000D+00  0.0000000000000D+00  0.0000000000000D+00
294  2.9300000000000D+00  0.0000000000000D+00  0.0000000000000D+00
295  2.9400000000000D+00  0.0000000000000D+00  0.0000000000000D+00
296  2.9500000000000D+00  0.0000000000000D+00  0.0000000000000D+00
297  2.9600000000000D+00  0.0000000000000D+00  0.0000000000000D+00
298  2.9700000000000D+00  0.0000000000000D+00  0.0000000000000D+00
299  2.9800000000000D+00  0.0000000000000D+00  0.0000000000000D+00
300  2.9900000000000D+00  0.0000000000000D+00  0.0000000000000D+00
301  3.0000000000000D+00  0.0000000000000D+00  0.0000000000000D+00
302  3.0100000000000D+00  0.0000000000000D+00  0.0000000000000D+00
303  3.0200000000000D+00  0.0000000000000D+00  0.0000000000000D+00
304  3.0300000000000D+00  0.0000000000000D+00  0.0000000000000D+00
305  3.0400000000000D+00  0.0000000000000D+00  0.0000000000000D+00
306  3.0500000000000D+00  0.0000000000000D+00  0.0000000000000D+00
307  3.0600000000000D+00  0.0000000000000D+00  0.0000000000000D+00
308  3.0700000000000D+00  0.0000000000000D+00  0.0000000000000D+00
309  3.0800000000000D+00  0.0000000000000D+00  0.0000000000000D+00
310  3.0900000000000D+00  0.0000000000000D+00  0.0000000000000D+00
311  3.1000000000000D+00  0.0000000000000D+00  0.0000000000000D+00
312  3.1100000000000D+00  0.0000000000000D+00  0.0000000000000D+00
313  3.1200000000000D+00  0.0000000000000D+00  0.0000000000000D+00
314  3.1300000000000D+00  0.0000000000000D+00  0.0000000000000D+00
315  3.1400000000000D+00  0.0000000000000D+00  0.0000000000000D+00
316  3.1500000000000D+00  0.0000000000000D+00  0.0000000000000D+00
317  3.1600000000000D+00  0.0000000000000D+00  0.0000000000000D+00
318  3.1700000000000D+00  0.0000000000000D+00  0.0000000000000D+00
319  3.1800000000000D+00  0.0000000000000D+00  0.0000000000000D+00
320  3.1900000000000D+00  0.0000000000000D+00  0.0000000000000D+00
321  3.2000000000000D+00  0.0000000000000D+00  0.0000000000000D+00
322  3.2100000000000D+00  0.0000000000000D+00  0.0000000000000D+00
323  3.2200000000000D+00  0.0000000000000D+00  0.0000000000000D+00
324  3.2300000000000D+00  0.0000000000000D+00  0.0000000000000D+00
325  3.2400000000000D+00  0.0000000000000D+00  0.0000000000000D+00
326  3.2500000000000D+00  0.0000000000000D+00  0.0000000000000D+00
327  3.2600000000000D+00  0.0000000000000D+00  0.0000000000000D+00
328  3.2700000000000D+00  0.0000000000000D+00  0.0000000000000D+00
329  3.2800000000000D+00  0.0000000000000D+00  0.0000000000000D+00
330  3.2900000000000D+00  0.0000000000000D+00  0.0000000000000D+00
331  3.3000000000000D+00  0.0000000000000D+00  0.0000000000000D+00
332  3.3100000000000D+00  0.0000000000000D+00  0.0000000000000D+00
333  3.3200000000000D+00  0.0000000000000D+00  0.0000000000000D+00
334  3.3300000000000D+00  0.0000000000000D+00  0.0000000000000D+00
335  3.3400000000000D+00  0.0000000000000D+00  0.0000000000000D+00
336  3.3500000000000D+00  0.0000000000000D+00  0.0000000000000D+00
337  3.3600000000000D+00  0.0000000000000D+00  0.0000000000000D+00
338  3.3700000000000D+00  0.0000000000000D+00  0.0000000000000D+00
339  3.3800000000000D+00  0.0000000000000D+00  0.0000000000000D+00
340  3.3900000000000D+00  0.0000000000000D+00  0.0000000000000D+00
341  3.4000000000000D+00  0.0000000000000D+00  0.0000000000000D+00
342  3.4100000000000D+00  0.0000000000000D+00  0.0000000000000D+00
343  3.4200000000000D+00  0.0000000000000D+00  0.0000000000000D+00
344  3.4300000000000D+00  0.0000000000000D+00  0.0000000000000D+00
345  3.4400000000000D+00  0.0000000000000D+00  0.0000000000000D+00
346  3.4500000000000D+00  0.0000000000000D+00  0.0000000000000D+00
347  3.4600000000000D+00  0.0000000000000D+00  0.0000000000000D+00
348  3.4700000000000D+00  0.0000000000000D+00  0.0000000000000D+00
349  3.4800000000000D+00  0.0000000000000D+00  0.0000000000000D+00
350  3.4900000000000D+00  0.0000000000000D+00  0.0000000000000D+00
351  3.5000000000000D+00  0.0000000000000D+00  0.0000000000000D+00
352  3.5100000000000D+00  0.0000000000000D+00  0.0000000000000D+00
353  3.5200000000000D+00  0.0000000000000D+00  0.0000000000000D+00
354  3.5300000000000D+00  0.0000000000000D+00  0.0000000000000D+00
355  3.5400000000000D+00  0.0000000000000D+00  0.0000000000000D+00
356  3.5500000000000D+00  0.0000000000000D+00  0.0000000000000D+00
357  3.5600000000000D+00  0.0000000000000D+00  0.0000000000000D+00
358  3.5700000000000D+00  0.0000000000000D+00  0.0000000000000D+00
359  3.5800000000000D+00  0.0000000000000D+00  0.0000000000000D+00
360  3.5900000000000D+00  0.0000000000000D+00  0.0000000000000D+00
361  3.6000000000000D+00  0.0000000000000D+00  0.0000000000000D+00
362  3.6100000000000D+00  0.0000000000000D+00  0.0000000000000D+00
363  3.6200000000000D+00  0.0000000000000D+00  0.0000000000000D+00
364  3.6300000000000D+00  0.0000000000000D+00  0.0000000000000D+00
365  3.6400000000000D+00  0.0000000000000D+00  0.0000000000000D+00
366  3.6500000000000D+00  0.0000000000000D+00  0.0000000000000D+00
367  3.6600000000000D+00  0.0000000000000D+00  0.0000000000000D+00
368  3.6700000000000D+00  0.0000000000000D+00  0.0000000000000D+00
369  3.6800000000000D+00  0.0000000000000D+00  0.0000000000000D+00
370  3.6900000000000D+00  0.0000000000000D+00  0.0000000000000D+00
371  3.7000000000000D+00  0.0000000000000D+00  0.0000000000000D+00
372  3.7100000000000D+00  0.0000000000000D+00  0.0000000000000D+00
373  3.7200000000000D+00  0.0000000000000D+00  0.0000000000000D+00
374  3.7300000000000D+00  0.0000000000000D+00  0.0000000000000D+00
375  3.7400000000000D+00  0.0000000000000D+00  0.0000000000000D+00
376  3.7500000000000D+00  0.0000000000000D+00  0.0000000000000D+00
377  3.7600000000000D+00  0.0000000000000D+00  0.0000000000000D+00
378  3.7700000000000D+00  0.0000000000000D+00  0.0000000000000D+00
379  3.7800000000000D+00  0.0000000000000D+00  0.0000000000000D+00
380  3.7900000000000D+00  0.0000000000000D+00  0.0000000000000D+00
381  3.8000000000000D+00  0.0000000000000D+00  0.0000000000000D+00
382  3.8100000000000D+00  0.0000000000000D+00  0.0000000000000D+00
383  3.8200000000000D+00  0.0000000000000D+00  0.0000000000000D+00
384  3.8300000000000D+00  0.0000000000000D+00  0.0000000000000D+00
385  3.8400000000000D+00  0.0000000000000D+00  0.0000000000000D+00
386  3.8500000000000D+00  0.0000000000000D+00  0.0000000000000D+00
387  3.8600000000000D+00  0.0000000000000D+00  0.0000000000000D+00
388  3.8700000000000D+00  0.0000000000000D+00  0.0000000000000D+00
389  3.8800000000000D+00  0.0000000000000D+00  0.0000000000000D+00
390  3.8900000000000D+00  0.0000000000000D+00  0.0000000000000D+00
391  3.9000000000000D+00  0.0000000000000D+00  0.0000000000000D+00
392  3.9100000000000D+00  0.0000000000000D+00  0.0000000000000D+00
393  3.9200000000000D+00  0.0000000000000D+00  0.0000000000000D+00
394  3.9300000000000D+00  0.0000000000000D+00  0.0000000000000D+00
395  3.9400000000000D+00  0.0000000000000D+00  0.0000000000000D+00
396  3.9500000000000D+00  0.0000000000000D+00  0.0000000000000D+00
397  3.9600000000000D+00  0.0000000000000D+00  0.0000000000000D+00
398  3.9700000000000D+00  0.0000000000000D+00  0.0000000000000D+00
399  3.9800000000000D+00  0.0000000000000D+00  0.0000000000000D+00
400  3.9900000000000D+00  0.0000000000000D+00  0.0000000000000D+00
401  4.0000000000000D+00  0.0000000000000D+00  0.0000000000000D+00
402  4.0100000000000D+00  0.0000000000000D+00  0.0000000000000D+00
403  4.0200000000000D+00  0.0000000000000D+00  0.0000000000000D+00
404  4.0300000000000D+00  0.0000000000000D+00  0.0000000000000D+00
405  4.0400000000000D+00  0.0000000000000D+00  0.0000000000000D+00
406  4.0500000000000D+00  0.0000000000000D+00  0.0000000000000D+00
407  4.0600000000000D+00  0.0000000000000D+00  0.0000000000000D+00
408  4.0700000000000D+00  0.0000000000000D+00  0.0000000000000D+00
409  4.0800000000000D+00  0.0000000000000D+00  0.0000000000000D+00
410  4.0900000000000D+00  0.0000000000000D+00  0.0000000000000D+00
411  4.1000000000000D+00  0.0000000000000D+00  0.0000000000000D+00
412  4.1100000000000D+00  0.0000000000000D+00  0.0000000000000D+00
413  4.1200000000000D+00  0.0000000000000D+00  0.0000000000000D+00
414  4.1300000000000D+00  0.0000000000000D+00  0.0000000000000D+00
415  4.1400000000000D+00  0.0000000000000D+00  0.0000000000000D+00
416  4.1500000000000D+00  0.0000000000000D+00  0.0000000000000D+00
417  4.1600000000000D+00  0.0000000000000D+00  0.0000000000000D+00
418  4.1700000000000D+00  0.0000000000000D+00  0.0000000000000D+00
419  4.1800000000000D+00  0.0000000000000D+00  0.0000000000000D+00
420  4.1900000000000D+00  0.0000000000000D+00  0.0000000000000D+00
421  4.2000000000000D+00  0.0000000000000D+00  0.0000000000000D+00
422  4.2100000000000D+00  0.0000000000000D+00  0.0000000000000D+00
423  4.2200000000000D+00  0.0000000000000D+00  0.0000000000000D+00
424  4.2300000000000D+00  0.0000000000000D+00  0.0000000000000D+00
425  4.2400000000000D+00  0.0000000000000D+00  0.0000000000000D+00
426  4.2500000000000D+00  0.0000000000000D+00  0.0000000000000D+00
427  4.2600000000000D+00  0.0000000000000D+00  0.0000000000000D+00
428  4.2700000000000D+00  0.0000000000000D+00  0.0000000000000D+00
429  4.2800000000000D+00  0.0000000000000D+00  0.0000000000000D+00
430  4.2900000000000D+00  0.0000000000000D+00  0.0000000000000D+00
431  4.3000000000000D+00  0.0000000000000D+00  0.0000000000000D+00
432  4.3100000000000D+00  0.0000000000000D+00  0.0000000000000D+00
433  4.3200000000000D+00  0.0000000000000D+00  0.0000000000000D+00
434  4.3300000000000D+00  0.0000000000000D+00  0.0000000000000D+00
435  4.3400000000000D+00  0.0000000000000D+00  0.0000000000000D+00
436  4.3500000000000D+00  0.0000000000000D+00  0.0000000000000D+00
437  4.3600000000000D+00  0.0000000000000D+00  0.0000000000000D+00
438  4.3700000000000D+00  0.0000000000000D+00  0.0000000000000D+00
439  4.3800000000000D+00  0.0000000000000D+00  0.0000000000000D+00
440  4.3900000000000D+00  0.0000000000000D+00  0.0000000000000D+00
441  4.4000000000000D+00  0.0000000000000D+00  0.0000000000000D+00
442  4.4100000000000D+00  0.0000000000000D+00  0.0000000000000D+00
443  4.4200000000000D+00  0.0000000000000D+00  0.0000000000000D+00