Na    ONCVPSP-3.3.0  r_core=   1.20708   1.55069
11.0000      9.0000      180429    zatom,zion,pspd
8 -116133   1     4   400     0    pspcod,pspxc,lmax,lloc,mmax,r2well
3.99000000  0.00000000  0.00000000    rchrg fchrg qchrg
2     2     0     0    nproj
3     1           extension_switch
3     0     0    nprojso
0                        -6.7810181060764D-01  2.6581610335846D+00
1  0.0000000000000D+00  5.6856055974386D-10  2.5553036353543D-09
2  1.0000000000000D-02  2.0986529031129D-02  9.2494051602847D-02
3  2.0000000000000D-02  4.2054902038146D-02  1.8477150081217D-01
4  3.0000000000000D-02  6.3285955662330D-02  2.7661438875487D-01
5  4.0000000000000D-02  8.4758523554899D-02  3.6780208344937D-01
6  5.0000000000000D-02  1.0654846393299D-01  4.5811004221518D-01
7  6.0000000000000D-02  1.2872772158749D-01  5.4730869099273D-01
8  7.0000000000000D-02  1.5136343515013D-01  6.3516245649562D-01
9  8.0000000000000D-02  1.7451709985867D-01  7.2142898456186D-01
10  9.0000000000000D-02  1.9824379536227D-01  8.0585857494744D-01
11  1.0000000000000D-01  2.2259148729347D-01  8.8819385916013D-01
12  1.1000000000000D-01  2.4760041040873D-01  9.6816974381665D-01
13  1.2000000000000D-01  2.7330254007903D-01  1.0455136374841D+00
14  1.3000000000000D-01  2.9972115780799D-01  1.1199459741020D+00
15  1.4000000000000D-01  3.2687051528245D-01  1.1911810409477D+00
16  1.5000000000000D-01  3.5475560023401D-01  1.2589281137801D+00
17  1.6000000000000D-01  3.8337200612658D-01  1.3228928963561D+00
18  1.7000000000000D-01  4.1270590639968D-01  1.3827792560385D+00
19  1.8000000000000D-01  4.4273413270803D-01  1.4382912417922D+00
20  1.9000000000000D-01  4.7342435532074D-01  1.4891353655702D+00
21  2.0000000000000D-01  5.0473536259536D-01  1.5350231230152D+00
22  2.1000000000000D-01  5.3661743523866D-01  1.5756737246100D+00
23  2.2000000000000D-01  5.6901280992396D-01  1.6108170039915D+00
24  2.3000000000000D-01  6.0185622576771D-01  1.6401964661532D+00
25  2.4000000000000D-01  6.3507554619051D-01  1.6635724347780D+00
26  2.5000000000000D-01  6.6859244781214D-01  1.6807252550105D+00
27  2.6000000000000D-01  7.0232316726770D-01  1.6914585056605D+00
28  2.7000000000000D-01  7.3617929619230D-01  1.6956021731565D+00
29  2.8000000000000D-01  7.7006861411355D-01  1.6930157385804D+00
30  2.9000000000000D-01  8.0389594861960D-01  1.6835911288317D+00
31  3.0000000000000D-01  8.3756405194180D-01  1.6672554834062D+00
32  3.1000000000000D-01  8.7097448300634D-01  1.6439736894373D+00
33  3.2000000000000D-01  9.0402848407012D-01  1.6137506395222D+00
34  3.3000000000000D-01  9.3662784126095D-01  1.5766331694338D+00
35  3.4000000000000D-01  9.6867571868821D-01  1.5327116360677D+00
36  3.5000000000000D-01  1.0000774562714D+00  1.4821210998579D+00
37  3.6000000000000D-01  1.0307413220454D+00  1.4250420803696D+00
38  3.7000000000000D-01  1.0605792104306D+00  1.3617008587834D+00
39  3.8000000000000D-01  1.0895072787998D+00  1.2923693064669D+00
40  3.9000000000000D-01  1.1174465156099D+00  1.2173642247051D+00
41  4.0000000000000D-01  1.1443232343936D+00  1.1370461868660D+00
42  4.1000000000000D-01  1.1700694890002D+00  1.0518178807199D+00
43  4.2000000000000D-01  1.1946234066264D+00  9.6212195522621D-01
44  4.3000000000000D-01  1.2179294363696D+00  8.6843838276547D-01
45  4.4000000000000D-01  1.2399385122492D+00  7.7128135442509D-01
46  4.5000000000000D-01  1.2606081308629D+00  6.7119573246199D-01
47  4.6000000000000D-01  1.2799023450548D+00  5.6875309036535D-01
48  4.7000000000000D-01  1.2977916761544D+00  4.6454737694169D-01
49  4.8000000000000D-01  1.3142529484848D+00  3.5919024645364D-01
50  4.9000000000000D-01  1.3292690509159D+00  2.5330610198233D-01
51  5.0000000000000D-01  1.3428286312459D+00  1.4752690377140D-01
52  5.1000000000000D-01  1.3549257301036D+00  4.2486798282273D-02
53  5.2000000000000D-01  1.3655593618855D+00 -6.1183373020930D-02
54  5.3000000000000D-01  1.3747330509355D+00 -1.6286162358516D-01
55  5.4000000000000D-01  1.3824543317556D+00 -2.6194036703297D-01
56  5.5000000000000D-01  1.3887342224846D+00 -3.5783189347007D-01
57  5.6000000000000D-01  1.3935866811874D+00 -4.4997371240167D-01
58  5.7000000000000D-01  1.3970280546674D+00 -5.3783369854941D-01
59  5.8000000000000D-01  1.3990765295400D+00 -6.2091497842896D-01
60  5.9000000000000D-01  1.3997515951802D+00 -6.9876049796553D-01
61  6.0000000000000D-01  1.3990735278985D+00 -7.7095721463742D-01
62  6.1000000000000D-01  1.3970629052930D+00 -8.3713986166177D-01
63  6.2000000000000D-01  1.3937401591936D+00 -8.9699423645019D-01
64  6.3000000000000D-01  1.3891251749491D+00 -9.5025997100975D-01
65  6.4000000000000D-01  1.3832369440330D+00 -9.9673274797706D-01
66  6.5000000000000D-01  1.3760932760593D+00 -1.0362659325442D+00
67  6.6000000000000D-01  1.3677105753249D+00 -1.0687715975779D+00
68  6.7000000000000D-01  1.3581036859391D+00 -1.0942209266054D+00
69  6.8000000000000D-01  1.3472858084882D+00 -1.1126439869997D+00
70  6.9000000000000D-01  1.3352684900113D+00 -1.1241288735430D+00
71  7.0000000000000D-01  1.3220616878730D+00 -1.1288202304243D+00
72  7.1000000000000D-01  1.3076739069107D+00 -1.1269171675772D+00
73  7.2000000000000D-01  1.2921124080284D+00 -1.1186705949700D+00
74  7.3000000000000D-01  1.2753834852291D+00 -1.1043800059207D+00
75  7.4000000000000D-01  1.2574928069344D+00 -1.0843897475910D+00
76  7.5000000000000D-01  1.2384458163588D+00 -1.0590848234623D+00
77  7.6000000000000D-01  1.2182481846885D+00 -1.0288862786964D+00
78  7.7000000000000D-01  1.1969063098957D+00 -9.9424622472817D-01
79  7.8000000000000D-01  1.1744278531922D+00 -9.5564256421073D-01
80  7.9000000000000D-01  1.1508223044206D+00 -9.1357348138566D-01
81  8.0000000000000D-01  1.1261015670971D+00 -8.6855176608310D-01
82  8.1000000000000D-01  1.1002805533748D+00 -8.2109904179594D-01
83  8.2000000000000D-01  1.0733777788859D+00 -7.7173996958562D-01
84  8.3000000000000D-01  1.0454159472680D+00 -7.2099649994195D-01
85  8.4000000000000D-01  1.0164225141664D+00 -6.6938224412419D-01
86  8.5000000000000D-01  9.8643022065274D-01 -6.1739703495760D-01
87  8.6000000000000D-01  9.5547758629057D-01 -5.6552174456386D-01
88  8.7000000000000D-01  9.2360935252196D-01 -5.1421342309399D-01
89  8.8000000000000D-01  8.9087686763211D-01 -4.6390081824941D-01
90  8.9000000000000D-01  8.5733840526541D-01 -4.1498033027422D-01
91  9.0000000000000D-01  8.2305940930930D-01 -3.6781245124453D-01
92  9.1000000000000D-01  7.8811265891740D-01 -3.2271873094512D-01
93  9.2000000000000D-01  7.5257834849905D-01 -2.7997930449460D-01
94  9.3000000000000D-01  7.1654407864424D-01 -2.3983100925317D-01
95  9.4000000000000D-01  6.8010475516401D-01 -2.0246611052256D-01
96  9.5000000000000D-01  6.4336239468908D-01 -1.6803164724705D-01
97  9.6000000000000D-01  6.0642583657906D-01 -1.3662940036733D-01
98  9.7000000000000D-01  5.6941036218896D-01 -1.0831647806856D-01
99  9.8000000000000D-01  5.3243722387432D-01 -8.3106503534587D-02
100  9.9000000000000D-01  4.9563308740293D-01 -6.0971382537863D-02
101  1.0000000000000D+00  4.5912939269054D-01 -4.1843620184547D-02
102  1.0100000000000D+00  4.2306163897713D-01 -2.5619148472562D-02
103  1.0200000000000D+00  3.8756860167763D-01 -1.2160619208120D-02
104  1.0300000000000D+00  3.5279148918571D-01 -1.3011101979635D-03
105  1.0400000000000D+00  3.1887304879292D-01  7.1518129564898D-03
106  1.0500000000000D+00  2.8595663173039D-01  1.3411742464617D-02
107  1.0600000000000D+00  2.5418522799085D-01  1.7708848438258D-02
108  1.0700000000000D+00  2.2370048211229D-01  2.0285143834485D-02
109  1.0800000000000D+00  1.9464170148540D-01  2.1389666982662D-02
110  1.0900000000000D+00  1.6714486895246D-01  2.1273655692659D-02
111  1.1000000000000D+00  1.4134167155194D-01  2.0185787454656D-02
112  1.1100000000000D+00  1.1735855713359D-01  1.8367559393856D-02
113  1.1200000000000D+00  9.5315830315650D-02  1.6048880029653D-02
114  1.1300000000000D+00  7.5326798764809D-02  1.3443941782764D-02
115  1.1400000000000D+00  5.7496980375682D-02  1.0747440624346D-02
116  1.1500000000000D+00  4.1923380992846D-02  8.1312033920228D-03
117  1.1600000000000D+00  2.8693851578419D-02  5.7412786605492D-03
118  1.1700000000000D+00  1.7891789131912D-02  3.6968671062095D-03
119  1.1800000000000D+00  9.5601201362817D-03  2.0790060910475D-03
120  1.1900000000000D+00  3.7750958907153D-03  9.4937044358973D-04
121  1.2000000000000D+00  7.4655409582517D-04  3.8859540152799D-04
122  1.2100000000000D+00 -1.3754818248719D-04  1.6090245487075D-04
123  1.2200000000000D+00 -3.4024894398730D-05  1.4338725192424D-05
124  1.2300000000000D+00  4.2509321751324D-05 -1.3597655736577D-05
125  1.2400000000000D+00 -6.5884086580562D-06  3.0598410685183D-06
126  1.2500000000000D+00 -1.7590415868584D-06  7.3467237965043D-07
127  1.2600000000000D+00  9.2279070903475D-08 -5.7935005887435D-07
128  1.2700000000000D+00  0.0000000000000D+00  0.0000000000000D+00
129  1.2800000000000D+00  0.0000000000000D+00  0.0000000000000D+00
130  1.2900000000000D+00  0.0000000000000D+00  0.0000000000000D+00
131  1.3000000000000D+00  0.0000000000000D+00  0.0000000000000D+00
132  1.3100000000000D+00  0.0000000000000D+00  0.0000000000000D+00
133  1.3200000000000D+00  0.0000000000000D+00  0.0000000000000D+00
134  1.3300000000000D+00  0.0000000000000D+00  0.0000000000000D+00
135  1.3400000000000D+00  0.0000000000000D+00  0.0000000000000D+00
136  1.3500000000000D+00  0.0000000000000D+00  0.0000000000000D+00
137  1.3600000000000D+00  0.0000000000000D+00  0.0000000000000D+00
138  1.3700000000000D+00  0.0000000000000D+00  0.0000000000000D+00
139  1.3800000000000D+00  0.0000000000000D+00  0.0000000000000D+00
140  1.3900000000000D+00  0.0000000000000D+00  0.0000000000000D+00
141  1.4000000000000D+00  0.0000000000000D+00  0.0000000000000D+00
142  1.4100000000000D+00  0.0000000000000D+00  0.0000000000000D+00
143  1.4200000000000D+00  0.0000000000000D+00  0.0000000000000D+00
144  1.4300000000000D+00  0.0000000000000D+00  0.0000000000000D+00
145  1.4400000000000D+00  0.0000000000000D+00  0.0000000000000D+00
146  1.4500000000000D+00  0.0000000000000D+00  0.0000000000000D+00
147  1.4600000000000D+00  0.0000000000000D+00  0.0000000000000D+00
148  1.4700000000000D+00  0.0000000000000D+00  0.0000000000000D+00
149  1.4800000000000D+00  0.0000000000000D+00  0.0000000000000D+00
150  1.4900000000000D+00  0.0000000000000D+00  0.0000000000000D+00
151  1.5000000000000D+00  0.0000000000000D+00  0.0000000000000D+00
152  1.5100000000000D+00  0.0000000000000D+00  0.0000000000000D+00
153  1.5200000000000D+00  0.0000000000000D+00  0.0000000000000D+00
154  1.5300000000000D+00  0.0000000000000D+00  0.0000000000000D+00
155  1.5400000000000D+00  0.0000000000000D+00  0.0000000000000D+00
156  1.5500000000000D+00  0.0000000000000D+00  0.0000000000000D+00
157  1.5600000000000D+00  0.0000000000000D+00  0.0000000000000D+00
158  1.5700000000000D+00  0.0000000000000D+00  0.0000000000000D+00
159  1.5800000000000D+00  0.0000000000000D+00  0.0000000000000D+00
160  1.5900000000000D+00  0.0000000000000D+00  0.0000000000000D+00
161  1.6000000000000D+00  0.0000000000000D+00  0.0000000000000D+00
162  1.6100000000000D+00  0.0000000000000D+00  0.0000000000000D+00
163  1.6200000000000D+00  0.0000000000000D+00  0.0000000000000D+00
164  1.6300000000000D+00  0.0000000000000D+00  0.0000000000000D+00
165  1.6400000000000D+00  0.0000000000000D+00  0.0000000000000D+00
166  1.6500000000000D+00  0.0000000000000D+00  0.0000000000000D+00
167  1.6600000000000D+00  0.0000000000000D+00  0.0000000000000D+00
168  1.6700000000000D+00  0.0000000000000D+00  0.0000000000000D+00
169  1.6800000000000D+00  0.0000000000000D+00  0.0000000000000D+00
170  1.6900000000000D+00  0.0000000000000D+00  0.0000000000000D+00
171  1.7000000000000D+00  0.0000000000000D+00  0.0000000000000D+00
172  1.7100000000000D+00  0.0000000000000D+00  0.0000000000000D+00
173  1.7200000000000D+00  0.0000000000000D+00  0.0000000000000D+00
174  1.7300000000000D+00  0.0000000000000D+00  0.0000000000000D+00
175  1.7400000000000D+00  0.0000000000000D+00  0.0000000000000D+00
176  1.7500000000000D+00  0.0000000000000D+00  0.0000000000000D+00
177  1.7600000000000D+00  0.0000000000000D+00  0.0000000000000D+00
178  1.7700000000000D+00  0.0000000000000D+00  0.0000000000000D+00
179  1.7800000000000D+00  0.0000000000000D+00  0.0000000000000D+00
180  1.7900000000000D+00  0.0000000000000D+00  0.0000000000000D+00
181  1.8000000000000D+00  0.0000000000000D+00  0.0000000000000D+00
182  1.8100000000000D+00  0.0000000000000D+00  0.0000000000000D+00
183  1.8200000000000D+00  0.0000000000000D+00  0.0000000000000D+00
184  1.8300000000000D+00  0.0000000000000D+00  0.0000000000000D+00
185  1.8400000000000D+00  0.0000000000000D+00  0.0000000000000D+00
186  1.8500000000000D+00  0.0000000000000D+00  0.0000000000000D+00
187  1.8600000000000D+00  0.0000000000000D+00  0.0000000000000D+00
188  1.8700000000000D+00  0.0000000000000D+00  0.0000000000000D+00
189  1.8800000000000D+00  0.0000000000000D+00  0.0000000000000D+00
190  1.8900000000000D+00  0.0000000000000D+00  0.0000000000000D+00
191  1.9000000000000D+00  0.0000000000000D+00  0.0000000000000D+00
192  1.9100000000000D+00  0.0000000000000D+00  0.0000000000000D+00
193  1.9200000000000D+00  0.0000000000000D+00  0.0000000000000D+00
194  1.9300000000000D+00  0.0000000000000D+00  0.0000000000000D+00
195  1.9400000000000D+00  0.0000000000000D+00  0.0000000000000D+00
196  1.9500000000000D+00  0.0000000000000D+00  0.0000000000000D+00
197  1.9600000000000D+00  0.0000000000000D+00  0.0000000000000D+00
198  1.9700000000000D+00  0.0000000000000D+00  0.0000000000000D+00
199  1.9800000000000D+00  0.0000000000000D+00  0.0000000000000D+00
200  1.9900000000000D+00  0.0000000000000D+00  0.0000000000000D+00
201  2.0000000000000D+00  0.0000000000000D+00  0.0000000000000D+00
202  2.0100000000000D+00  0.0000000000000D+00  0.0000000000000D+00
203  2.0200000000000D+00  0.0000000000000D+00  0.0000000000000D+00
204  2.0300000000000D+00  0.0000000000000D+00  0.0000000000000D+00
205  2.0400000000000D+00  0.0000000000000D+00  0.0000000000000D+00
206  2.0500000000000D+00  0.0000000000000D+00  0.0000000000000D+00
207  2.0600000000000D+00  0.0000000000000D+00  0.0000000000000D+00
208  2.0700000000000D+00  0.0000000000000D+00  0.0000000000000D+00
209  2.0800000000000D+00  0.0000000000000D+00  0.0000000000000D+00
210  2.0900000000000D+00  0.0000000000000D+00  0.0000000000000D+00
211  2.1000000000000D+00  0.0000000000000D+00  0.0000000000000D+00
212  2.1100000000000D+00  0.0000000000000D+00  0.0000000000000D+00
213  2.1200000000000D+00  0.0000000000000D+00  0.0000000000000D+00
214  2.1300000000000D+00  0.0000000000000D+00  0.0000000000000D+00
215  2.1400000000000D+00  0.0000000000000D+00  0.0000000000000D+00
216  2.1500000000000D+00  0.0000000000000D+00  0.0000000000000D+00
217  2.1600000000000D+00  0.0000000000000D+00  0.0000000000000D+00
218  2.1700000000000D+00  0.0000000000000D+00  0.0000000000000D+00
219  2.1800000000000D+00  0.0000000000000D+00  0.0000000000000D+00
220  2.1900000000000D+00  0.0000000000000D+00  0.0000000000000D+00
221  2.2000000000000D+00  0.0000000000000D+00  0.0000000000000D+00
222  2.2100000000000D+00  0.0000000000000D+00  0.0000000000000D+00
223  2.2200000000000D+00  0.0000000000000D+00  0.0000000000000D+00
224  2.2300000000000D+00  0.0000000000000D+00  0.0000000000000D+00
225  2.2400000000000D+00  0.0000000000000D+00  0.0000000000000D+00
226  2.2500000000000D+00  0.0000000000000D+00  0.0000000000000D+00
227  2.2600000000000D+00  0.0000000000000D+00  0.0000000000000D+00
228  2.2700000000000D+00  0.0000000000000D+00  0.0000000000000D+00
229  2.2800000000000D+00  0.0000000000000D+00  0.0000000000000D+00
230  2.2900000000000D+00  0.0000000000000D+00  0.0000000000000D+00
231  2.3000000000000D+00  0.0000000000000D+00  0.0000000000000D+00
232  2.3100000000000D+00  0.0000000000000D+00  0.0000000000000D+00
233  2.3200000000000D+00  0.0000000000000D+00  0.0000000000000D+00
234  2.3300000000000D+00  0.0000000000000D+00  0.0000000000000D+00
235  2.3400000000000D+00  0.0000000000000D+00  0.0000000000000D+00
236  2.3500000000000D+00  0.0000000000000D+00  0.0000000000000D+00
237  2.3600000000000D+00  0.0000000000000D+00  0.0000000000000D+00
238  2.3700000000000D+00  0.0000000000000D+00  0.0000000000000D+00
239  2.3800000000000D+00  0.0000000000000D+00  0.0000000000000D+00
240  2.3900000000000D+00  0.0000000000000D+00  0.0000000000000D+00
241  2.4000000000000D+00  0.0000000000000D+00  0.0000000000000D+00
242  2.4100000000000D+00  0.0000000000000D+00  0.0000000000000D+00
243  2.4200000000000D+00  0.0000000000000D+00  0.0000000000000D+00
244  2.4300000000000D+00  0.0000000000000D+00  0.0000000000000D+00
245  2.4400000000000D+00  0.0000000000000D+00  0.0000000000000D+00
246  2.4500000000000D+00  0.0000000000000D+00  0.0000000000000D+00
247  2.4600000000000D+00  0.0000000000000D+00  0.0000000000000D+00
248  2.4700000000000D+00  0.0000000000000D+00  0.0000000000000D+00
249  2.4800000000000D+00  0.0000000000000D+00  0.0000000000000D+00
250  2.4900000000000D+00  0.0000000000000D+00  0.0000000000000D+00
251  2.5000000000000D+00  0.0000000000000D+00  0.0000000000000D+00
252  2.5100000000000D+00  0.0000000000000D+00  0.0000000000000D+00
253  2.5200000000000D+00  0.0000000000000D+00  0.0000000000000D+00
254  2.5300000000000D+00  0.0000000000000D+00  0.0000000000000D+00
255  2.5400000000000D+00  0.0000000000000D+00  0.0000000000000D+00
256  2.5500000000000D+00  0.0000000000000D+00  0.0000000000000D+00
257  2.5600000000000D+00  0.0000000000000D+00  0.0000000000000D+00
258  2.5700000000000D+00  0.0000000000000D+00  0.0000000000000D+00
259  2.5800000000000D+00  0.0000000000000D+00  0.0000000000000D+00
260  2.5900000000000D+00  0.0000000000000D+00  0.0000000000000D+00
261  2.6000000000000D+00  0.0000000000000D+00  0.0000000000000D+00
262  2.6100000000000D+00  0.0000000000000D+00  0.0000000000000D+00
263  2.6200000000000D+00  0.0000000000000D+00  0.0000000000000D+00
264  2.6300000000000D+00  0.0000000000000D+00  0.0000000000000D+00
265  2.6400000000000D+00  0.0000000000000D+00  0.0000000000000D+00
266  2.6500000000000D+00  0.0000000000000D+00  0.0000000000000D+00
267  2.6600000000000D+00  0.0000000000000D+00  0.0000000000000D+00
268  2.6700000000000D+00  0.0000000000000D+00  0.0000000000000D+00
269  2.6800000000000D+00  0.0000000000000D+00  0.0000000000000D+00
270  2.6900000000000D+00  0.0000000000000D+00  0.0000000000000D+00
271  2.7000000000000D+00  0.0000000000000D+00  0.0000000000000D+00
272  2.7100000000000D+00  0.0000000000000D+00  0.0000000000000D+00
273  2.7200000000000D+00  0.0000000000000D+00  0.0000000000000D+00
274  2.7300000000000D+00  0.0000000000000D+00  0.0000000000000D+00
275  2.7400000000000D+00  0.0000000000000D+00  0.0000000000000D+00
276  2.7500000000000D+00  0.0000000000000D+00  0.0000000000000D+00
277  2.7600000000000D+00  0.0000000000000D+00  0.0000000000000D+00
278  2.7700000000000D+00  0.0000000000000D+00  0.0000000000000D+00
279  2.7800000000000D+00  0.0000000000000D+00  0.0000000000000D+00
280  2.7900000000000D+00  0.0000000000000D+00  0.0000000000000D+00
281  2.8000000000000D+00  0.0000000000000D+00  0.0000000000000D+00
282  2.8100000000000D+00  0.0000000000000D+00  0.0000000000000D+00
283  2.8200000000000D+00  0.0000000000000D+00  0.0000000000000D+00
284  2.8300000000000D+00  0.0000000000000D+00  0.0000000000000D+00
285  2.8400000000000D+00  0.0000000000000D+00  0.0000000000000D+00
286  2.8500000000000D+00  0.0000000000000D+00  0.0000000000000D+00
287  2.8600000000000D+00  0.0000000000000D+00  0.0000000000000D+00
288  2.8700000000000D+00  0.0000000000000D+00  0.0000000000000D+00
289  2.8800000000000D+00  0.0000000000000D+00  0.0000000000000D+00
290  2.8900000000000D+00  0.0000000000000D+00  0.0000000000000D+00
291  2.9000000000000D+00  0.0000000000000D+00  0.0000000000000D+00
292  2.9100000000000D+00  0.0000000000000D+00  0.0000000000000D+00
293  2.9200000000000D+00  0.0000000000000D+00  0.0000000000000D+00
294  2.9300000000000D+00  0.0000000000000D+00  0.0000000000000D+00
295  2.9400000000000D+00  0.0000000000000D+00  0.0000000000000D+00
296  2.9500000000000D+00  0.0000000000000D+00  0.0000000000000D+00
297  2.9600000000000D+00  0.0000000000000D+00  0.0000000000000D+00
298  2.9700000000000D+00  0.0000000000000D+00  0.0000000000000D+00
299  2.9800000000000D+00  0.0000000000000D+00  0.0000000000000D+00
300  2.9900000000000D+00  0.0000000000000D+00  0.0000000000000D+00
301  3.0000000000000D+00  0.0000000000000D+00  0.0000000000000D+00
302  3.0100000000000D+00  0.0000000000000D+00  0.0000000000000D+00
303  3.0200000000000D+00  0.0000000000000D+00  0.0000000000000D+00
304  3.0300000000000D+00  0.0000000000000D+00  0.0000000000000D+00
305  3.0400000000000D+00  0.0000000000000D+00  0.0000000000000D+00
306  3.0500000000000D+00  0.0000000000000D+00  0.0000000000000D+00
307  3.0600000000000D+00  0.0000000000000D+00  0.0000000000000D+00
308  3.0700000000000D+00  0.0000000000000D+00  0.0000000000000D+00
309  3.0800000000000D+00  0.0000000000000D+00  0.0000000000000D+00
310  3.0900000000000D+00  0.0000000000000D+00  0.0000000000000D+00
311  3.1000000000000D+00  0.0000000000000D+00  0.0000000000000D+00
312  3.1100000000000D+00  0.0000000000000D+00  0.0000000000000D+00
313  3.1200000000000D+00  0.0000000000000D+00  0.0000000000000D+00
314  3.1300000000000D+00  0.0000000000000D+00  0.0000000000000D+00
315  3.1400000000000D+00  0.0000000000000D+00  0.0000000000000D+00
316  3.1500000000000D+00  0.0000000000000D+00  0.0000000000000D+00
317  3.1600000000000D+00  0.0000000000000D+00  0.0000000000000D+00
318  3.1700000000000D+00  0.0000000000000D+00  0.0000000000000D+00
319  3.1800000000000D+00  0.0000000000000D+00  0.0000000000000D+00
320  3.1900000000000D+00  0.0000000000000D+00  0.0000000000000D+00
321  3.2000000000000D+00  0.0000000000000D+00  0.0000000000000D+00
322  3.2100000000000D+00  0.0000000000000D+00  0.0000000000000D+00
323  3.2200000000000D+00  0.0000000000000D+00  0.0000000000000D+00
324  3.2300000000000D+00  0.0000000000000D+00  0.0000000000000D+00
325  3.2400000000000D+00  0.0000000000000D+00  0.0000000000000D+00
326  3.2500000000000D+00  0.0000000000000D+00  0.0000000000000D+00
327  3.2600000000000D+00  0.0000000000000D+00  0.0000000000000D+00
328  3.2700000000000D+00  0.0000000000000D+00  0.0000000000000D+00
329  3.2800000000000D+00  0.0000000000000D+00  0.0000000000000D+00
330  3.2900000000000D+00  0.0000000000000D+00  0.0000000000000D+00
331  3.3000000000000D+00  0.0000000000000D+00  0.0000000000000D+00
332  3.3100000000000D+00  0.0000000000000D+00  0.0000000000000D+00
333  3.3200000000000D+00  0.0000000000000D+00  0.0000000000000D+00
334  3.3300000000000D+00  0.0000000000000D+00  0.0000000000000D+00
335  3.3400000000000D+00  0.0000000000000D+00  0.0000000000000D+00
336  3.3500000000000D+00  0.0000000000000D+00  0.0000000000000D+00
337  3.3600000000000D+00  0.0000000000000D+00  0.0000000000000D+00
338  3.3700000000000D+00  0.0000000000000D+00  0.0000000000000D+00
339  3.3800000000000D+00  0.0000000000000D+00  0.0000000000000D+00
340  3.3900000000000D+00  0.0000000000000D+00  0.0000000000000D+00
341  3.4000000000000D+00  0.0000000000000D+00  0.0000000000000D+00
342  3.4100000000000D+00  0.0000000000000D+00  0.0000000000000D+00
343  3.4200000000000D+00  0.0000000000000D+00  0.0000000000000D+00
344  3.4300000000000D+00  0.0000000000000D+00  0.0000000000000D+00
345  3.4400000000000D+00  0.0000000000000D+00  0.0000000000000D+00
346  3.4500000000000D+00  0.0000000000000D+00  0.0000000000000D+00
347  3.4600000000000D+00  0.0000000000000D+00  0.0000000000000D+00
348  3.4700000000000D+00  0.0000000000000D+00  0.0000000000000D+00
349  3.4800000000000D+00  0.0000000000000D+00  0.0000000000000D+00
350  3.4900000000000D+00  0.0000000000000D+00  0.0000000000000D+00
351  3.5000000000000D+00  0.0000000000000D+00  0.0000000000000D+00
352  3.5100000000000D+00  0.0000000000000D+00  0.0000000000000D+00
353  3.5200000000000D+00  0.0000000000000D+00  0.0000000000000D+00
354  3.5300000000000D+00  0.0000000000000D+00  0.0000000000000D+00
355  3.5400000000000D+00  0.0000000000000D+00  0.0000000000000D+00
356  3.5500000000000D+00  0.0000000000000D+00  0.0000000000000D+00
357  3.5600000000000D+00  0.0000000000000D+00  0.0000000000000D+00
358  3.5700000000000D+00  0.0000000000000D+00  0.0000000000000D+00
359  3.5800000000000D+00  0.0000000000000D+00  0.0000000000000D+00
360  3.5900000000000D+00  0.0000000000000D+00  0.0000000000000D+00
361  3.6000000000000D+00  0.0000000000000D+00  0.0000000000000D+00
362  3.6100000000000D+00  0.0000000000000D+00  0.0000000000000D+00
363  3.6200000000000D+00  0.0000000000000D+00  0.0000000000000D+00
364  3.6300000000000D+00  0.0000000000000D+00  0.0000000000000D+00
365  3.6400000000000D+00  0.0000000000000D+00  0.0000000000000D+00
366  3.6500000000000D+00  0.0000000000000D+00  0.0000000000000D+00
367  3.6600000000000D+00  0.0000000000000D+00  0.0000000000000D+00
368  3.6700000000000D+00  0.0000000000000D+00  0.0000000000000D+00
369  3.6800000000000D+00  0.0000000000000D+00  0.0000000000000D+00
370  3.6900000000000D+00  0.0000000000000D+00  0.0000000000000D+00
371  3.7000000000000D+00  0.0000000000000D+00  0.0000000000000D+00
372  3.7100000000000D+00  0.0000000000000D+00  0.0000000000000D+00
373  3.7200000000000D+00  0.0000000000000D+00  0.0000000000000D+00
374  3.7300000000000D+00  0.0000000000000D+00  0.0000000000000D+00
375  3.7400000000000D+00  0.0000000000000D+00  0.0000000000000D+00
376  3.7500000000000D+00  0.0000000000000D+00  0.0000000000000D+00
377  3.7600000000000D+00  0.0000000000000D+00  0.0000000000000D+00
378  3.7700000000000D+00  0.0000000000000D+00  0.0000000000000D+00
379  3.7800000000000D+00  0.0000000000000D+00  0.0000000000000D+00
380  3.7900000000000D+00  0.0000000000000D+00  0.0000000000000D+00
381  3.8000000000000D+00  0.0000000000000D+00  0.0000000000000D+00
382  3.8100000000000D+00  0.0000000000000D+00  0.0000000000000D+00
383  3.8200000000000D+00  0.0000000000000D+00  0.0000000000000D+00
384  3.8300000000000D+00  0.0000000000000D+00  0.0000000000000D+00
385  3.8400000000000D+00  0.0000000000000D+00  0.0000000000000D+00
386  3.8500000000000D+00  0.0000000000000D+00  0.0000000000000D+00
387  3.8600000000000D+00  0.0000000000000D+00  0.0000000000000D+00
388  3.8700000000000D+00  0.0000000000000D+00  0.0000000000000D+00
389  3.8800000000000D+00  0.0000000000000D+00  0.0000000000000D+00
390  3.8900000000000D+00  0.0000000000000D+00  0.0000000000000D+00
391  3.9000000000000D+00  0.0000000000000D+00  0.0000000000000D+00
392  3.9100000000000D+00  0.0000000000000D+00  0.0000000000000D+00
393  3.9200000000000D+00  0.0000000000000D+00  0.0000000000000D+00
394  3.9300000000000D+00  0.0000000000000D+00  0.0000000000000D+00
395  3.9400000000000D+00  0.0000000000000D+00  0.0000000000000D+00
396  3.9500000000000D+00  0.0000000000000D+00  0.0000000000000D+00
397  3.9600000000000D+00  0.0000000000000D+00  0.0000000000000D+00
398  3.9700000000000D+00  0.0000000000000D+00  0.0000000000000D+00
399  3.9800000000000D+00  0.0000000000000D+00  0.0000000000000D+00
400  3.9900000000000D+00  0.0000000000000D+00  0.0000000000000D+00
1                        -6.7610080210191D+00 -2.4045611904248D+00
1  0.0000000000000D+00  5.0800577633403D-10 -6.5777932406474D-10
2  1.0000000000000D-02  2.2067929940550D-03 -9.8723418763185D-04
3  2.0000000000000D-02  8.8159106016548D-03 -3.9396330825140D-03
4  3.0000000000000D-02  1.9793624534941D-02 -8.8293461477361D-03
5  4.0000000000000D-02  3.5083906838925D-02 -1.5610157037747D-02
6  5.0000000000000D-02  5.4608707764736D-02 -2.4217784229714D-02
7  6.0000000000000D-02  7.8268342967692D-02 -3.4570299527856D-02
8  7.0000000000000D-02  1.0594198821351D-01 -4.6568662074115D-02
9  8.0000000000000D-02  1.3748827926795D-01 -6.0097364840774D-02
10  9.0000000000000D-02  1.7274601414568D-01 -7.5025189936862D-02
11  1.0000000000000D-01  2.1153495440474D-01 -9.1206068432961D-02
12  1.1000000000000D-01  2.5365672169570D-01 -1.0848003980199D-01
13  1.2000000000000D-01  2.9889578531132D-01 -1.2667430548903D-01
14  1.3000000000000D-01  3.4702053603525D-01 -1.4560437056453D-01
15  1.4000000000000D-01  3.9778444115866D-01 -1.6507526688531D-01
16  1.5000000000000D-01  4.5092727512381D-01 -1.8488285068879D-01
17  1.6000000000000D-01  5.0617641986529D-01 -2.0481516708165D-01
18  1.7000000000000D-01  5.6324822855515D-01 -2.2465387345583D-01
19  1.8000000000000D-01  6.2184944611821D-01 -2.4417571347690D-01
20  1.9000000000000D-01  6.8167867957230D-01 -2.6315403294247D-01
21  2.0000000000000D-01  7.4242791096453D-01 -2.8136032850632D-01
22  2.1000000000000D-01  8.0378404542264D-01 -2.9856582000699D-01
23  2.2000000000000D-01  8.6543048662056D-01 -3.1454303693199D-01
24  2.3000000000000D-01  9.2704873177166D-01 -3.2906740939044D-01
25  2.4000000000000D-01  9.8831997811325D-01 -3.4191885386125D-01
26  2.5000000000000D-01  1.0489267327331D+00 -3.5288334393064D-01
27  2.6000000000000D-01  1.1085544175143D+00 -3.6175445623460D-01
28  2.7000000000000D-01  1.1668929609413D+00 -3.6833488187904D-01
29  2.8000000000000D-01  1.2236383685140D+00 -3.7243789372331D-01
30  2.9000000000000D-01  1.2784942635671D+00 -3.7388876008279D-01
31  3.0000000000000D-01  1.3311733903818D+00 -3.7252609563288D-01
32  3.1000000000000D-01  1.3813990716084D+00 -3.6820314057989D-01
33  3.2000000000000D-01  1.4289066121979D+00 -3.6078895950362D-01
34  3.3000000000000D-01  1.4734446422578D+00 -3.5016955167124D-01
35  3.4000000000000D-01  1.5147763915127D+00 -3.3624886507087D-01
36  3.5000000000000D-01  1.5526808883557D+00 -3.1894970691482D-01
37  3.6000000000000D-01  1.5869540768226D+00 -2.9821454391455D-01
38  3.7000000000000D-01  1.6174098452137D+00 -2.7400618623063D-01
39  3.8000000000000D-01  1.6438809605150D+00 -2.4630834964730D-01
40  3.9000000000000D-01  1.6662199032380D+00 -2.1512609121154D-01
41  4.0000000000000D-01  1.6842995978029D+00 -1.8048611430563D-01
42  4.1000000000000D-01  1.6980140341297D+00 -1.4243693988788D-01
43  4.2000000000000D-01  1.7072787766694D+00 -1.0104894143376D-01