Ne    ONCVPSP-3.3.0  r_core=   1.31204   1.70576
10.0000      8.0000      180503    zatom,zion,pspd
8 -116133   1     4   400     0    pspcod,pspxc,lmax,lloc,mmax,r2well
3.99000000  0.00000000  0.00000000    rchrg fchrg qchrg
2     2     0     0    nproj
3     1           extension_switch
2     0     0    nprojso
0                        -4.7211024522935D-01  2.3094435245830D+00
1  0.0000000000000D+00  5.1425656788506D-10  1.2879405320021D-09
2  1.0000000000000D-02  1.3414846902189D-02  7.6699519532647D-02
3  2.0000000000000D-02  2.6927172995696D-02  1.5328663763241D-01
4  3.0000000000000D-02  4.0633390727156D-02  2.2964768745170D-01
5  4.0000000000000D-02  5.4627790700364D-02  3.0566649613558D-01
6  5.0000000000000D-02  6.9001509738905D-02  3.8122319354117D-01
7  6.0000000000000D-02  8.3841533360645D-02  4.5619309409940D-01
8  7.0000000000000D-02  9.9229743524313D-02  5.3044567466936D-01
9  8.0000000000000D-02  1.1524202199408D-01  6.0384366994770D-01
10  9.0000000000000D-02  1.3194741903631D-01  6.7624230541490D-01
11  1.0000000000000D-01  1.4940739642066D-01  7.4748868594658D-01
12  1.1000000000000D-01  1.6767515285376D-01  8.1742135611307D-01
13  1.2000000000000D-01  1.8679503903775D-01  8.8587004586046D-01
14  1.3000000000000D-01  2.0680206852840D-01  9.5265561273949D-01
15  1.4000000000000D-01  2.2772152948013D-01  1.0175901891551D+00
16  1.5000000000000D-01  2.4956870122031D-01  1.0804775402831D+00
17  1.6000000000000D-01  2.7234867840625D-01  1.1411136353762D+00
18  1.7000000000000D-01  2.9605630429812D-01  1.1992874321912D+00
19  1.8000000000000D-01  3.2067621344453D-01  1.2547818712598D+00
20  1.9000000000000D-01  3.4618298283835D-01  1.3073750737187D+00
21  2.0000000000000D-01  3.7254138937260D-01  1.3568417334647D+00
22  2.1000000000000D-01  3.9970677022474D-01  1.4029546915312D+00
23  2.2000000000000D-01  4.2762548163543D-01  1.4454866778374D+00
24  2.3000000000000D-01  4.5623545043885D-01  1.4842122028722D+00
25  2.4000000000000D-01  4.8546681165839D-01  1.5189095794753D+00
26  2.5000000000000D-01  5.1524262451628D-01  1.5493630527006D+00
27  2.6000000000000D-01  5.4547965832969D-01  1.5753650138161D+00
28  2.7000000000000D-01  5.7608923898864D-01  1.5967182728445D+00
29  2.8000000000000D-01  6.0697814604317D-01  1.6132383626881D+00
30  2.9000000000000D-01  6.3804954987452D-01  1.6247558468488D+00
31  3.0000000000000D-01  6.6920397799593D-01  1.6311186020434D+00
32  3.1000000000000D-01  7.0034029922705D-01  1.6321940466576D+00
33  3.2000000000000D-01  7.3135671431552D-01  1.6278712859715D+00
34  3.3000000000000D-01  7.6215174154344D-01  1.6180631454372D+00
35  3.4000000000000D-01  7.9262518595342D-01  1.6027080639930D+00
36  3.5000000000000D-01  8.2267908106040D-01  1.5817718204516D+00
37  3.6000000000000D-01  8.5221859227703D-01  1.5552490673944D+00
38  3.7000000000000D-01  8.8115287176851D-01  1.5231646487303D+00
39  3.8000000000000D-01  9.0939585506260D-01  1.4855746791079D+00
40  3.9000000000000D-01  9.3686699046414D-01  1.4425673657009D+00
41  4.0000000000000D-01  9.6349189315305D-01  1.3942635554730D+00
42  4.1000000000000D-01  9.8920291677068D-01  1.3408169938614D+00
43  4.2000000000000D-01  1.0139396363112D+00  1.2824142838531D+00
44  4.3000000000000D-01  1.0376492372203D+00  1.2192745376366D+00
45  4.4000000000000D-01  1.0602868067490D+00  1.1516487163625D+00
46  4.5000000000000D-01  1.0818155248078D+00  1.0798186569891D+00
47  4.6000000000000D-01  1.1022067527904D+00  1.0040957886992D+00
48  4.7000000000000D-01  1.1214400200889D+00  9.2481954489870D-01
49  4.8000000000000D-01  1.1395029092695D+00  8.4235548031565D-01
50  4.9000000000000D-01  1.1563908421250D+00  7.5709310615711D-01
51  5.0000000000000D-01  1.1721067700320D+00  6.6944345962474D-01
52  5.1000000000000D-01  1.1866607732224D+00  5.7983642728357D-01
53  5.2000000000000D-01  1.2000695747007D+00  4.8871784479431D-01
54  5.3000000000000D-01  1.2123559755934D+00  3.9654639831411D-01
55  5.4000000000000D-01  1.2235482196953D+00  3.0379035541359D-01
56  5.5000000000000D-01  1.2336792958605D+00  2.1092415561597D-01
57  5.6000000000000D-01  1.2427861876662D+00  1.1842489260449D-01
58  5.7000000000000D-01  1.2509090804468D+00  2.6768721750918D-02
59  5.8000000000000D-01  1.2580905363415D+00 -6.3572772143356D-02
60  5.9000000000000D-01  1.2643746484191D+00 -1.5213621113770D-01
61  6.0000000000000D-01  1.2698061852277D+00 -2.3847002824904D-01
62  6.1000000000000D-01  1.2744297372630D+00 -3.2213800306287D-01
63  6.2000000000000D-01  1.2782888768603D+00 -4.0272269290196D-01
64  6.3000000000000D-01  1.2814253428748D+00 -4.7982872434404D-01
65  6.4000000000000D-01  1.2838782612495D+00 -5.5308591102256D-01
66  6.5000000000000D-01  1.2856834121507D+00 -6.2215216517977D-01
67  6.6000000000000D-01  1.2868725538131D+00 -6.8671617236088D-01
68  6.7000000000000D-01  1.2874728125636D+00 -7.4649980090426D-01
69  6.8000000000000D-01  1.2875061477011D+00 -8.0126022048971D-01
70  6.9000000000000D-01  1.2869888990098D+00 -8.5079170692743D-01
71  7.0000000000000D-01  1.2859314236801D+00 -8.9492711356035D-01
72  7.1000000000000D-01  1.2843378283211D+00 -9.3353899308269D-01
73  7.2000000000000D-01  1.2822058005833D+00 -9.6654035722205D-01
74  7.3000000000000D-01  1.2795265436750D+00 -9.9388506553960D-01
75  7.4000000000000D-01  1.2762848157843D+00 -1.0155678385254D+00
76  7.5000000000000D-01  1.2724590751040D+00 -1.0316238941732D+00
77  7.6000000000000D-01  1.2680217298270D+00 -1.0421282112648D+00
78  7.7000000000000D-01  1.2629394911570D+00 -1.0471944266025D+00
79  7.8000000000000D-01  1.2571738260563D+00 -1.0469733774168D+00
80  7.9000000000000D-01  1.2506815051711D+00 -1.0416513040245D+00
81  8.0000000000000D-01  1.2434152401397D+00 -1.0314477315249D+00
82  8.1000000000000D-01  1.2353244033064D+00 -1.0166130528446D+00
83  8.2000000000000D-01  1.2263558217695D+00 -9.9742583871820D-01
84  8.3000000000000D-01  1.2164546366761D+00 -9.7418990320494D-01
85  8.4000000000000D-01  1.2055652177722D+00 -9.4723115603604D-01
86  8.5000000000000D-01  1.1936321224203D+00 -9.1689427544419D-01
87  8.6000000000000D-01  1.1806010876305D+00 -8.8353923710774D-01
88  8.7000000000000D-01  1.1664200431125D+00 -8.4753773642832D-01
89  8.8000000000000D-01  1.1510401329629D+00 -8.0926954252897D-01
90  8.9000000000000D-01  1.1344167333553D+00 -7.6911882309552D-01
91  9.0000000000000D-01  1.1165104535000D+00 -7.2747047947630D-01
92  9.1000000000000D-01  1.0972881071979D+00 -6.8470653129911D-01
93  9.2000000000000D-01  1.0767236425205D+00 -6.4120258925923D-01
94  9.3000000000000D-01  1.0547990175069D+00 -5.9732445368308D-01
95  9.4000000000000D-01  1.0315050102781D+00 -5.5342487498988D-01
96  9.5000000000000D-01  1.0068419526193D+00 -5.0984051027693D-01
97  9.6000000000000D-01  9.8082037687218D-01 -4.6688910793494D-01
98  9.7000000000000D-01  9.5346156688937D-01 -4.2486694956402D-01
99  9.8000000000000D-01  9.2479800483571D-01 -3.8404657542828D-01
100  9.9000000000000D-01  8.9487370677230D-01 -3.4467481634872D-01
101  1.0000000000000D+00  8.6374444117956D-01 -3.0697115136539D-01
102  1.0100000000000D+00  8.3147782589460D-01 -2.7112640666123D-01
103  1.0200000000000D+00  7.9815330030765D-01 -2.3730180724623D-01
104  1.0300000000000D+00  7.6386197111648D-01 -2.0562838866395D-01
105  1.0400000000000D+00  7.2870633133640D-01 -1.7620677190565D-01
106  1.0500000000000D+00  6.9279985377979D-01 -1.4910730029638D-01
107  1.0600000000000D+00  6.5626646168837D-01 -1.2437053283338D-01
108  1.0700000000000D+00  6.1923988061797D-01 -1.0200808432415D-01
109  1.0800000000000D+00  5.8186287713029D-01 -8.2003798423841D-02
110  1.0900000000000D+00  5.4428639114906D-01 -6.4315235864815D-02
111  1.1000000000000D+00  5.0666857013006D-01 -4.8875456391101D-02
112  1.1100000000000D+00  4.6917371446065D-01 -3.5595069199663D-02
113  1.1200000000000D+00  4.3197114451816D-01 -2.4364523713562D-02
114  1.1300000000000D+00  3.9523400087632D-01 -1.5056609386018D-02
115  1.1400000000000D+00  3.5913798985817D-01 -7.5291311424729D-03
116  1.1500000000000D+00  3.2386008757730D-01 -1.6277242589248D-03
117  1.1600000000000D+00  2.8957721600858D-01  2.8112287337757D-03
118  1.1700000000000D+00  2.5646490508894D-01  5.9576179385644D-03
119  1.1800000000000D+00  2.2469595513028D-01  7.9846024624564D-03
120  1.1900000000000D+00  1.9443911395478D-01  9.0656234366102D-03
121  1.2000000000000D+00  1.6585778297683D-01  9.3714733949315D-03
122  1.2100000000000D+00  1.3910876634578D-01  9.0674614764662D-03
123  1.2200000000000D+00  1.1434107687805D-01  8.3107129171249D-03
124  1.2300000000000D+00  9.1694811797794D-02  7.2476393580599D-03
125  1.2400000000000D+00  7.1300110651837D-02  6.0116147071071D-03
126  1.2500000000000D+00  5.3276207262172D-02  4.7208899212407D-03
127  1.2600000000000D+00  3.7730585982688D-02  3.4767756506257D-03
128  1.2700000000000D+00  2.4763489495048D-02  2.3627195969036D-03
129  1.2800000000000D+00  1.4443157844283D-02  1.4403339205477D-03
130  1.2900000000000D+00  6.8013517048411D-03  7.4680293284113D-04
131  1.3000000000000D+00  2.1111947944579D-03  3.3774978655684D-04
132  1.3100000000000D+00  1.3499843319913D-04  1.6686477554439D-04
133  1.3200000000000D+00 -1.7356727713113D-04  5.9358694580744D-05
134  1.3300000000000D+00  2.9106495077832D-05 -6.4433096782833D-06
135  1.3400000000000D+00  3.3605266078176D-05 -5.9277601307725D-06
136  1.3500000000000D+00 -9.9625539334599D-06  2.5883305148683D-06
137  1.3600000000000D+00  2.4943937113206D-09 -1.5166377215680D-08
138  1.3700000000000D+00  6.1080687927350D-08 -3.7138193120645D-07
139  1.3800000000000D+00  0.0000000000000D+00  0.0000000000000D+00
140  1.3900000000000D+00  0.0000000000000D+00  0.0000000000000D+00
141  1.4000000000000D+00  0.0000000000000D+00  0.0000000000000D+00
142  1.4100000000000D+00  0.0000000000000D+00  0.0000000000000D+00
143  1.4200000000000D+00  0.0000000000000D+00  0.0000000000000D+00
144  1.4300000000000D+00  0.0000000000000D+00  0.0000000000000D+00
145  1.4400000000000D+00  0.0000000000000D+00  0.0000000000000D+00
146  1.4500000000000D+00  0.0000000000000D+00  0.0000000000000D+00
147  1.4600000000000D+00  0.0000000000000D+00  0.0000000000000D+00
148  1.4700000000000D+00  0.0000000000000D+00  0.0000000000000D+00
149  1.4800000000000D+00  0.0000000000000D+00  0.0000000000000D+00
150  1.4900000000000D+00  0.0000000000000D+00  0.0000000000000D+00
151  1.5000000000000D+00  0.0000000000000D+00  0.0000000000000D+00
152  1.5100000000000D+00  0.0000000000000D+00  0.0000000000000D+00
153  1.5200000000000D+00  0.0000000000000D+00  0.0000000000000D+00
154  1.5300000000000D+00  0.0000000000000D+00  0.0000000000000D+00
155  1.5400000000000D+00  0.0000000000000D+00  0.0000000000000D+00
156  1.5500000000000D+00  0.0000000000000D+00  0.0000000000000D+00
157  1.5600000000000D+00  0.0000000000000D+00  0.0000000000000D+00
158  1.5700000000000D+00  0.0000000000000D+00  0.0000000000000D+00
159  1.5800000000000D+00  0.0000000000000D+00  0.0000000000000D+00
160  1.5900000000000D+00  0.0000000000000D+00  0.0000000000000D+00
161  1.6000000000000D+00  0.0000000000000D+00  0.0000000000000D+00
162  1.6100000000000D+00  0.0000000000000D+00  0.0000000000000D+00
163  1.6200000000000D+00  0.0000000000000D+00  0.0000000000000D+00
164  1.6300000000000D+00  0.0000000000000D+00  0.0000000000000D+00
165  1.6400000000000D+00  0.0000000000000D+00  0.0000000000000D+00
166  1.6500000000000D+00  0.0000000000000D+00  0.0000000000000D+00
167  1.6600000000000D+00  0.0000000000000D+00  0.0000000000000D+00
168  1.6700000000000D+00  0.0000000000000D+00  0.0000000000000D+00
169  1.6800000000000D+00  0.0000000000000D+00  0.0000000000000D+00
170  1.6900000000000D+00  0.0000000000000D+00  0.0000000000000D+00
171  1.7000000000000D+00  0.0000000000000D+00  0.0000000000000D+00
172  1.7100000000000D+00  0.0000000000000D+00  0.0000000000000D+00
173  1.7200000000000D+00  0.0000000000000D+00  0.0000000000000D+00
174  1.7300000000000D+00  0.0000000000000D+00  0.0000000000000D+00
175  1.7400000000000D+00  0.0000000000000D+00  0.0000000000000D+00
176  1.7500000000000D+00  0.0000000000000D+00  0.0000000000000D+00
177  1.7600000000000D+00  0.0000000000000D+00  0.0000000000000D+00
178  1.7700000000000D+00  0.0000000000000D+00  0.0000000000000D+00
179  1.7800000000000D+00  0.0000000000000D+00  0.0000000000000D+00
180  1.7900000000000D+00  0.0000000000000D+00  0.0000000000000D+00
181  1.8000000000000D+00  0.0000000000000D+00  0.0000000000000D+00
182  1.8100000000000D+00  0.0000000000000D+00  0.0000000000000D+00
183  1.8200000000000D+00  0.0000000000000D+00  0.0000000000000D+00
184  1.8300000000000D+00  0.0000000000000D+00  0.0000000000000D+00
185  1.8400000000000D+00  0.0000000000000D+00  0.0000000000000D+00
186  1.8500000000000D+00  0.0000000000000D+00  0.0000000000000D+00
187  1.8600000000000D+00  0.0000000000000D+00  0.0000000000000D+00
188  1.8700000000000D+00  0.0000000000000D+00  0.0000000000000D+00
189  1.8800000000000D+00  0.0000000000000D+00  0.0000000000000D+00
190  1.8900000000000D+00  0.0000000000000D+00  0.0000000000000D+00
191  1.9000000000000D+00  0.0000000000000D+00  0.0000000000000D+00
192  1.9100000000000D+00  0.0000000000000D+00  0.0000000000000D+00
193  1.9200000000000D+00  0.0000000000000D+00  0.0000000000000D+00
194  1.9300000000000D+00  0.0000000000000D+00  0.0000000000000D+00
195  1.9400000000000D+00  0.0000000000000D+00  0.0000000000000D+00
196  1.9500000000000D+00  0.0000000000000D+00  0.0000000000000D+00
197  1.9600000000000D+00  0.0000000000000D+00  0.0000000000000D+00
198  1.9700000000000D+00  0.0000000000000D+00  0.0000000000000D+00
199  1.9800000000000D+00  0.0000000000000D+00  0.0000000000000D+00
200  1.9900000000000D+00  0.0000000000000D+00  0.0000000000000D+00
201  2.0000000000000D+00  0.0000000000000D+00  0.0000000000000D+00
202  2.0100000000000D+00  0.0000000000000D+00  0.0000000000000D+00
203  2.0200000000000D+00  0.0000000000000D+00  0.0000000000000D+00
204  2.0300000000000D+00  0.0000000000000D+00  0.0000000000000D+00
205  2.0400000000000D+00  0.0000000000000D+00  0.0000000000000D+00
206  2.0500000000000D+00  0.0000000000000D+00  0.0000000000000D+00
207  2.0600000000000D+00  0.0000000000000D+00  0.0000000000000D+00
208  2.0700000000000D+00  0.0000000000000D+00  0.0000000000000D+00
209  2.0800000000000D+00  0.0000000000000D+00  0.0000000000000D+00
210  2.0900000000000D+00  0.0000000000000D+00  0.0000000000000D+00
211  2.1000000000000D+00  0.0000000000000D+00  0.0000000000000D+00
212  2.1100000000000D+00  0.0000000000000D+00  0.0000000000000D+00
213  2.1200000000000D+00  0.0000000000000D+00  0.0000000000000D+00
214  2.1300000000000D+00  0.0000000000000D+00  0.0000000000000D+00
215  2.1400000000000D+00  0.0000000000000D+00  0.0000000000000D+00
216  2.1500000000000D+00  0.0000000000000D+00  0.0000000000000D+00
217  2.1600000000000D+00  0.0000000000000D+00  0.0000000000000D+00
218  2.1700000000000D+00  0.0000000000000D+00  0.0000000000000D+00
219  2.1800000000000D+00  0.0000000000000D+00  0.0000000000000D+00
220  2.1900000000000D+00  0.0000000000000D+00  0.0000000000000D+00
221  2.2000000000000D+00  0.0000000000000D+00  0.0000000000000D+00
222  2.2100000000000D+00  0.0000000000000D+00  0.0000000000000D+00
223  2.2200000000000D+00  0.0000000000000D+00  0.0000000000000D+00
224  2.2300000000000D+00  0.0000000000000D+00  0.0000000000000D+00
225  2.2400000000000D+00  0.0000000000000D+00  0.0000000000000D+00
226  2.2500000000000D+00  0.0000000000000D+00  0.0000000000000D+00
227  2.2600000000000D+00  0.0000000000000D+00  0.0000000000000D+00
228  2.2700000000000D+00  0.0000000000000D+00  0.0000000000000D+00
229  2.2800000000000D+00  0.0000000000000D+00  0.0000000000000D+00
230  2.2900000000000D+00  0.0000000000000D+00  0.0000000000000D+00
231  2.3000000000000D+00  0.0000000000000D+00  0.0000000000000D+00
232  2.3100000000000D+00  0.0000000000000D+00  0.0000000000000D+00
233  2.3200000000000D+00  0.0000000000000D+00  0.0000000000000D+00
234  2.3300000000000D+00  0.0000000000000D+00  0.0000000000000D+00
235  2.3400000000000D+00  0.0000000000000D+00  0.0000000000000D+00
236  2.3500000000000D+00  0.0000000000000D+00  0.0000000000000D+00
237  2.3600000000000D+00  0.0000000000000D+00  0.0000000000000D+00
238  2.3700000000000D+00  0.0000000000000D+00  0.0000000000000D+00
239  2.3800000000000D+00  0.0000000000000D+00  0.0000000000000D+00
240  2.3900000000000D+00  0.0000000000000D+00  0.0000000000000D+00
241  2.4000000000000D+00  0.0000000000000D+00  0.0000000000000D+00
242  2.4100000000000D+00  0.0000000000000D+00  0.0000000000000D+00
243  2.4200000000000D+00  0.0000000000000D+00  0.0000000000000D+00
244  2.4300000000000D+00  0.0000000000000D+00  0.0000000000000D+00
245  2.4400000000000D+00  0.0000000000000D+00  0.0000000000000D+00
246  2.4500000000000D+00  0.0000000000000D+00  0.0000000000000D+00
247  2.4600000000000D+00  0.0000000000000D+00  0.0000000000000D+00
248  2.4700000000000D+00  0.0000000000000D+00  0.0000000000000D+00
249  2.4800000000000D+00  0.0000000000000D+00  0.0000000000000D+00
250  2.4900000000000D+00  0.0000000000000D+00  0.0000000000000D+00
251  2.5000000000000D+00  0.0000000000000D+00  0.0000000000000D+00
252  2.5100000000000D+00  0.0000000000000D+00  0.0000000000000D+00
253  2.5200000000000D+00  0.0000000000000D+00  0.0000000000000D+00
254  2.5300000000000D+00  0.0000000000000D+00  0.0000000000000D+00
255  2.5400000000000D+00  0.0000000000000D+00  0.0000000000000D+00
256  2.5500000000000D+00  0.0000000000000D+00  0.0000000000000D+00
257  2.5600000000000D+00  0.0000000000000D+00  0.0000000000000D+00
258  2.5700000000000D+00  0.0000000000000D+00  0.0000000000000D+00
259  2.5800000000000D+00  0.0000000000000D+00  0.0000000000000D+00
260  2.5900000000000D+00  0.0000000000000D+00  0.0000000000000D+00
261  2.6000000000000D+00  0.0000000000000D+00  0.0000000000000D+00
262  2.6100000000000D+00  0.0000000000000D+00  0.0000000000000D+00
263  2.6200000000000D+00  0.0000000000000D+00  0.0000000000000D+00
264  2.6300000000000D+00  0.0000000000000D+00  0.0000000000000D+00
265  2.6400000000000D+00  0.0000000000000D+00  0.0000000000000D+00
266  2.6500000000000D+00  0.0000000000000D+00  0.0000000000000D+00
267  2.6600000000000D+00  0.0000000000000D+00  0.0000000000000D+00
268  2.6700000000000D+00  0.0000000000000D+00  0.0000000000000D+00
269  2.6800000000000D+00  0.0000000000000D+00  0.0000000000000D+00
270  2.6900000000000D+00  0.0000000000000D+00  0.0000000000000D+00
271  2.7000000000000D+00  0.0000000000000D+00  0.0000000000000D+00
272  2.7100000000000D+00  0.0000000000000D+00  0.0000000000000D+00
273  2.7200000000000D+00  0.0000000000000D+00  0.0000000000000D+00
274  2.7300000000000D+00  0.0000000000000D+00  0.0000000000000D+00
275  2.7400000000000D+00  0.0000000000000D+00  0.0000000000000D+00
276  2.7500000000000D+00  0.0000000000000D+00  0.0000000000000D+00
277  2.7600000000000D+00  0.0000000000000D+00  0.0000000000000D+00
278  2.7700000000000D+00  0.0000000000000D+00  0.0000000000000D+00
279  2.7800000000000D+00  0.0000000000000D+00  0.0000000000000D+00
280  2.7900000000000D+00  0.0000000000000D+00  0.0000000000000D+00
281  2.8000000000000D+00  0.0000000000000D+00  0.0000000000000D+00
282  2.8100000000000D+00  0.0000000000000D+00  0.0000000000000D+00
283  2.8200000000000D+00  0.0000000000000D+00  0.0000000000000D+00
284  2.8300000000000D+00  0.0000000000000D+00  0.0000000000000D+00
285  2.8400000000000D+00  0.0000000000000D+00  0.0000000000000D+00
286  2.8500000000000D+00  0.0000000000000D+00  0.0000000000000D+00
287  2.8600000000000D+00  0.0000000000000D+00  0.0000000000000D+00
288  2.8700000000000D+00  0.0000000000000D+00  0.0000000000000D+00
289  2.8800000000000D+00  0.0000000000000D+00  0.0000000000000D+00
290  2.8900000000000D+00  0.0000000000000D+00  0.0000000000000D+00
291  2.9000000000000D+00  0.0000000000000D+00  0.0000000000000D+00
292  2.9100000000000D+00  0.0000000000000D+00  0.0000000000000D+00
293  2.9200000000000D+00  0.0000000000000D+00  0.0000000000000D+00
294  2.9300000000000D+00  0.0000000000000D+00  0.0000000000000D+00
295  2.9400000000000D+00  0.0000000000000D+00  0.0000000000000D+00
296  2.9500000000000D+00  0.0000000000000D+00  0.0000000000000D+00
297  2.9600000000000D+00  0.0000000000000D+00  0.0000000000000D+00
298  2.9700000000000D+00  0.0000000000000D+00  0.0000000000000D+00
299  2.9800000000000D+00  0.0000000000000D+00  0.0000000000000D+00
300  2.9900000000000D+00  0.0000000000000D+00  0.0000000000000D+00
301  3.0000000000000D+00  0.0000000000000D+00  0.0000000000000D+00
302  3.0100000000000D+00  0.0000000000000D+00  0.0000000000000D+00
303  3.0200000000000D+00  0.0000000000000D+00  0.0000000000000D+00
304  3.0300000000000D+00  0.0000000000000D+00  0.0000000000000D+00
305  3.0400000000000D+00  0.0000000000000D+00  0.0000000000000D+00
306  3.0500000000000D+00  0.0000000000000D+00  0.0000000000000D+00
307  3.0600000000000D+00  0.0000000000000D+00  0.0000000000000D+00
308  3.0700000000000D+00  0.0000000000000D+00  0.0000000000000D+00
309  3.0800000000000D+00  0.0000000000000D+00  0.0000000000000D+00
310  3.0900000000000D+00  0.0000000000000D+00  0.0000000000000D+00
311  3.1000000000000D+00  0.0000000000000D+00  0.0000000000000D+00
312  3.1100000000000D+00  0.0000000000000D+00  0.0000000000000D+00
313  3.1200000000000D+00  0.0000000000000D+00  0.0000000000000D+00
314  3.1300000000000D+00  0.0000000000000D+00  0.0000000000000D+00
315  3.1400000000000D+00  0.0000000000000D+00  0.0000000000000D+00
316  3.1500000000000D+00  0.0000000000000D+00  0.0000000000000D+00
317  3.1600000000000D+00  0.0000000000000D+00  0.0000000000000D+00
318  3.1700000000000D+00  0.0000000000000D+00  0.0000000000000D+00
319  3.1800000000000D+00  0.0000000000000D+00  0.0000000000000D+00
320  3.1900000000000D+00  0.0000000000000D+00  0.0000000000000D+00
321  3.2000000000000D+00  0.0000000000000D+00  0.0000000000000D+00
322  3.2100000000000D+00  0.0000000000000D+00  0.0000000000000D+00
323  3.2200000000000D+00  0.0000000000000D+00  0.0000000000000D+00
324  3.2300000000000D+00  0.0000000000000D+00  0.0000000000000D+00
325  3.2400000000000D+00  0.0000000000000D+00  0.0000000000000D+00
326  3.2500000000000D+00  0.0000000000000D+00  0.0000000000000D+00
327  3.2600000000000D+00  0.0000000000000D+00  0.0000000000000D+00
328  3.2700000000000D+00  0.0000000000000D+00  0.0000000000000D+00
329  3.2800000000000D+00  0.0000000000000D+00  0.0000000000000D+00
330  3.2900000000000D+00  0.0000000000000D+00  0.0000000000000D+00
331  3.3000000000000D+00  0.0000000000000D+00  0.0000000000000D+00
332  3.3100000000000D+00  0.0000000000000D+00  0.0000000000000D+00
333  3.3200000000000D+00  0.0000000000000D+00  0.0000000000000D+00
334  3.3300000000000D+00  0.0000000000000D+00  0.0000000000000D+00
335  3.3400000000000D+00  0.0000000000000D+00  0.0000000000000D+00
336  3.3500000000000D+00  0.0000000000000D+00  0.0000000000000D+00
337  3.3600000000000D+00  0.0000000000000D+00  0.0000000000000D+00
338  3.3700000000000D+00  0.0000000000000D+00  0.0000000000000D+00
339  3.3800000000000D+00  0.0000000000000D+00  0.0000000000000D+00
340  3.3900000000000D+00  0.0000000000000D+00  0.0000000000000D+00
341  3.4000000000000D+00  0.0000000000000D+00  0.0000000000000D+00
342  3.4100000000000D+00  0.0000000000000D+00  0.0000000000000D+00
343  3.4200000000000D+00  0.0000000000000D+00  0.0000000000000D+00
344  3.4300000000000D+00  0.0000000000000D+00  0.0000000000000D+00
345  3.4400000000000D+00  0.0000000000000D+00  0.0000000000000D+00
346  3.4500000000000D+00  0.0000000000000D+00  0.0000000000000D+00
347  3.4600000000000D+00  0.0000000000000D+00  0.0000000000000D+00
348  3.4700000000000D+00  0.0000000000000D+00  0.0000000000000D+00
349  3.4800000000000D+00  0.0000000000000D+00  0.0000000000000D+00
350  3.4900000000000D+00  0.0000000000000D+00  0.0000000000000D+00
351  3.5000000000000D+00  0.0000000000000D+00  0.0000000000000D+00
352  3.5100000000000D+00  0.0000000000000D+00  0.0000000000000D+00
353  3.5200000000000D+00  0.0000000000000D+00  0.0000000000000D+00
354  3.5300000000000D+00  0.0000000000000D+00  0.0000000000000D+00
355  3.5400000000000D+00  0.0000000000000D+00  0.0000000000000D+00
356  3.5500000000000D+00  0.0000000000000D+00  0.0000000000000D+00
357  3.5600000000000D+00  0.0000000000000D+00  0.0000000000000D+00
358  3.5700000000000D+00  0.0000000000000D+00  0.0000000000000D+00
359  3.5800000000000D+00  0.0000000000000D+00  0.0000000000000D+00
360  3.5900000000000D+00  0.0000000000000D+00  0.0000000000000D+00
361  3.6000000000000D+00  0.0000000000000D+00  0.0000000000000D+00
362  3.6100000000000D+00  0.0000000000000D+00  0.0000000000000D+00
363  3.6200000000000D+00  0.0000000000000D+00  0.0000000000000D+00
364  3.6300000000000D+00  0.0000000000000D+00  0.0000000000000D+00
365  3.6400000000000D+00  0.0000000000000D+00  0.0000000000000D+00
366  3.6500000000000D+00  0.0000000000000D+00  0.0000000000000D+00
367  3.6600000000000D+00  0.0000000000000D+00  0.0000000000000D+00
368  3.6700000000000D+00  0.0000000000000D+00  0.0000000000000D+00
369  3.6800000000000D+00  0.0000000000000D+00  0.0000000000000D+00
370  3.6900000000000D+00  0.0000000000000D+00  0.0000000000000D+00
371  3.7000000000000D+00  0.0000000000000D+00  0.0000000000000D+00
372  3.7100000000000D+00  0.0000000000000D+00  0.0000000000000D+00
373  3.7200000000000D+00  0.0000000000000D+00  0.0000000000000D+00
374  3.7300000000000D+00  0.0000000000000D+00  0.0000000000000D+00
375  3.7400000000000D+00  0.0000000000000D+00  0.0000000000000D+00
376  3.7500000000000D+00  0.0000000000000D+00  0.0000000000000D+00
377  3.7600000000000D+00  0.0000000000000D+00  0.0000000000000D+00
378  3.7700000000000D+00  0.0000000000000D+00  0.0000000000000D+00
379  3.7800000000000D+00  0.0000000000000D+00  0.0000000000000D+00
380  3.7900000000000D+00  0.0000000000000D+00  0.0000000000000D+00
381  3.8000000000000D+00  0.0000000000000D+00  0.0000000000000D+00
382  3.8100000000000D+00  0.0000000000000D+00  0.0000000000000D+00
383  3.8200000000000D+00  0.0000000000000D+00  0.0000000000000D+00
384  3.8300000000000D+00  0.0000000000000D+00  0.0000000000000D+00
385  3.8400000000000D+00  0.0000000000000D+00  0.0000000000000D+00
386  3.8500000000000D+00  0.0000000000000D+00  0.0000000000000D+00
387  3.8600000000000D+00  0.0000000000000D+00  0.0000000000000D+00
388  3.8700000000000D+00  0.0000000000000D+00  0.0000000000000D+00
389  3.8800000000000D+00  0.0000000000000D+00  0.0000000000000D+00
390  3.8900000000000D+00  0.0000000000000D+00  0.0000000000000D+00
391  3.9000000000000D+00  0.0000000000000D+00  0.0000000000000D+00
392  3.9100000000000D+00  0.0000000000000D+00  0.0000000000000D+00
393  3.9200000000000D+00  0.0000000000000D+00  0.0000000000000D+00
394  3.9300000000000D+00  0.0000000000000D+00  0.0000000000000D+00
395  3.9400000000000D+00  0.0000000000000D+00  0.0000000000000D+00
396  3.9500000000000D+00  0.0000000000000D+00  0.0000000000000D+00
397  3.9600000000000D+00  0.0000000000000D+00  0.0000000000000D+00
398  3.9700000000000D+00  0.0000000000000D+00  0.0000000000000D+00
399  3.9800000000000D+00  0.0000000000000D+00  0.0000000000000D+00
400  3.9900000000000D+00  0.0000000000000D+00  0.0000000000000D+00
1                        -5.1433424443227D+00 -1.6684723628622D+00
1  0.0000000000000D+00 -9.3813873336401D-11  2.8615954744682D-10
2  1.0000000000000D-02  1.4004790226081D-03 -3.7042673895742D-04
3  2.0000000000000D-02  5.5975313219671D-03 -1.4799934581295D-03
4  3.0000000000000D-02  1.2578010001616D-02 -3.3235543378213D-03
5  4.0000000000000D-02  2.2320028318122D-02 -5.8925154143505D-03
6  5.0000000000000D-02  3.4792996995928D-02 -9.1748087342005D-03
7  6.0000000000000D-02  4.9957676842501D-02 -1.3154857264022D-02
8  7.0000000000000D-02  6.7766247030409D-02 -1.7813531635102D-02
9  8.0000000000000D-02  8.8162389506792D-02 -2.3128100087078D-02
10  9.0000000000000D-02  1.1108139007645D-01 -2.9072173245518D-02
11  1.0000000000000D-01  1.3645025678081D-01 -3.5615645618269D-02
12  1.1000000000000D-01  1.6418785626006D-01 -4.2724635923265D-02
13  1.2000000000000D-01  1.9420506883785D-01 -5.0361428562322D-02
14  1.3000000000000D-01  2.2640496310658D-01 -5.8484418729544D-02
15  1.4000000000000D-01  2.6068299081451D-01 -6.7048063785998D-02
16  1.5000000000000D-01  2.9692720286362D-01 -7.6002843642935D-02
17  1.6000000000000D-01  3.3501848721740D-01 -8.5295232971782D-02
18  1.7000000000000D-01  3.7483082949149D-01 -9.4867688099194D-02
19  1.8000000000000D-01  4.1623159695489D-01 -1.0465865144849D-01
20  1.9000000000000D-01  4.5908184660727D-01 -1.1460257635393D-01
21  2.0000000000000D-01  5.0323665791647D-01 -1.2462997500139D-01
22  2.1000000000000D-01  5.4854549070183D-01 -1.3466749213787D-01
23  2.2000000000000D-01  5.9485256853209D-01 -1.4463800704341D-01
24  2.3000000000000D-01  6.4199728787308D-01 -1.5446076607325D-01
25  2.4000000000000D-01  6.8981465307045D-01 -1.6405154785623D-01
26  2.5000000000000D-01  7.3813573708707D-01 -1.7332286297988D-01
27  2.6000000000000D-01  7.8678816773541D-01 -1.8218418970409D-01
28  2.7000000000000D-01  8.3559663895237D-01 -1.9054224692712D-01
29  2.8000000000000D-01  8.8438344646025D-01 -1.9830130528174D-01
30  2.9000000000000D-01  9.3296904694372D-01 -2.0536353686894D-01
31  3.0000000000000D-01  9.8117263965111D-01 -2.1162940374475D-01
32  3.1000000000000D-01  1.0288127691006D+00 -2.1699808486608D-01
33  3.2000000000000D-01  1.0757079473407D+00 -2.2136794077744D-01
34  3.3000000000000D-01  1.1216772939799D+00 -2.2463701488649D-01
35  3.4000000000000D-01  1.1665411919707D+00 -2.2670356973569D-01
36  3.5000000000000D-01  1.2101219568977D+00 -2.2746665623566D-01
37  3.6000000000000D-01  1.2522445173023D+00 -2.2682671338565D-01
38  3.7000000000000D-01  1.2927371033520D+00 -2.2468619557419D-01
39  3.8000000000000D-01  1.3314319409598D+00 -2.2095022413138D-01
40  3.9000000000000D-01  1.3681659482635D+00 -2.1552725939875D-01
41  4.0000000000000D-01  1.4027814311933D+00 -2.0832978919751D-01
42  4.1000000000000D-01  1.4351267746943D+00 -1.9927502921515D-01
43  4.2000000000000D-01  1.4650571260260D+00 -1.8828563049830D-01