Ni    ONCVPSP-3.3.0  r_core=   1.26116   1.35474   1.65929
28.0000     18.0000      180430    zatom,zion,pspd
8 -116133   2     4   600     0    pspcod,pspxc,lmax,lloc,mmax,r2well
5.99000000  3.00000000  0.00000000    rchrg fchrg qchrg
2     3     2     0    nproj
3     1           extension_switch
4     2     0    nprojso
0                        -2.5148640913960D-01  6.2436194358322D+00
1  0.0000000000000D+00 -1.1926009901853D-08 -1.3774038576386D-09
2  1.0000000000000D-02  5.7285584662067D-02  1.0446812348354D-01
3  2.0000000000000D-02  1.1398396956338D-01  2.0853920869757D-01
4  3.0000000000000D-02  1.6951707852996D-01  3.1181852268235D-01
5  4.0000000000000D-02  2.2332491790561D-01  4.1391591982751D-01
6  5.0000000000000D-02  2.7487420929989D-01  5.1444807773213D-01
7  6.0000000000000D-02  3.2366654082266D-01  6.1304066469002D-01
8  7.0000000000000D-02  3.6924589062352D-01  7.0933041766102D-01
9  8.0000000000000D-02  4.1120538848046D-01  8.0296711096603D-01
10  9.0000000000000D-02  4.4919319565862D-01  8.9361539761815D-01
11  1.0000000000000D-01  4.8291740001309D-01  9.8095650714277D-01
12  1.1000000000000D-01  5.1214984201864D-01  1.0646897859118D+00
13  1.2000000000000D-01  5.3672880771936D-01  1.1445340683810D+00
14  1.3000000000000D-01  5.5656054611427D-01  1.2202288701333D+00
15  1.4000000000000D-01  5.7161959081968D-01  1.2915353962473D+00
16  1.5000000000000D-01  5.8194788854975D-01  1.3582373611859D+00
17  1.6000000000000D-01  5.8765275959618D-01  1.4201416190804D+00
18  1.7000000000000D-01  5.8890373763356D-01  1.4770786059327D+00
19  1.8000000000000D-01  5.8592835740080D-01  1.5289025978113D+00
20  1.9000000000000D-01  5.7900697870162D-01  1.5754917915460D+00
21  2.0000000000000D-01  5.6846675334322D-01  1.6167482166772D+00
22  2.1000000000000D-01  5.5467485773716D-01  1.6525974894503D+00
23  2.2000000000000D-01  5.3803112760615D-01  1.6829884214417D+00
24  2.3000000000000D-01  5.1896024230293D-01  1.7078924969076D+00
25  2.4000000000000D-01  4.9790361443269D-01  1.7273032341593D+00
26  2.5000000000000D-01  4.7531114561309D-01  1.7412354471526D+00
27  2.6000000000000D-01  4.5163301119587D-01  1.7497244240322D+00
28  2.7000000000000D-01  4.2731163556653D-01  1.7528250395827D+00
29  2.8000000000000D-01  4.0277401524205D-01  1.7506108184115D+00
30  2.9000000000000D-01  3.7842453948327D-01  1.7431729652298D+00
31  3.0000000000000D-01  3.5463844765610D-01  1.7306193778197D+00
32  3.1000000000000D-01  3.3175604931625D-01  1.7130736572034D+00
33  3.2000000000000D-01  3.1007781719734D-01  1.6906741281848D+00
34  3.3000000000000D-01  2.8986044525728D-01  1.6635728818478D+00
35  3.4000000000000D-01  2.7131394402414D-01  1.6319348498109D+00
36  3.5000000000000D-01  2.5459982406591D-01  1.5959369180855D+00
37  3.6000000000000D-01  2.3983039590222D-01  1.5557670863196D+00
38  3.7000000000000D-01  2.2706919152206D-01  1.5116236760677D+00
39  3.8000000000000D-01  2.1633248932318D-01  1.4637145895636D+00
40  3.9000000000000D-01  2.0759190120944D-01  1.4122566183350D+00
41  4.0000000000000D-01  2.0077795823339D-01  1.3574747989318D+00
42  4.1000000000000D-01  1.9578461000039D-01  1.2996018110941D+00
43  4.2000000000000D-01  1.9247453349211D-01  1.2388774119028D+00
44  4.3000000000000D-01  1.9068512941997D-01  1.1755478978826D+00
45  4.4000000000000D-01  1.9023506905257D-01  1.1098655856904D+00
46  4.5000000000000D-01  1.9093124199683D-01  1.0420883009670D+00
47  4.6000000000000D-01  1.9257594592503D-01  9.7247886417513D-01
48  4.7000000000000D-01  1.9497415294395D-01  9.0130456181386D-01
49  4.8000000000000D-01  1.9794068435725D-01  8.2883659130572D-01
50  4.9000000000000D-01  2.0130712606646D-01  7.5534946810107D-01
51  5.0000000000000D-01  2.0492832081935D-01  6.8112038413879D-01
52  5.1000000000000D-01  2.0868828089546D-01  6.0642850773001D-01
53  5.2000000000000D-01  2.1250537551617D-01  5.3155421618242D-01
54  5.3000000000000D-01  2.1633666110229D-01  4.5677825403188D-01
55  5.4000000000000D-01  2.2018123921308D-01  3.8238081156617D-01
56  5.5000000000000D-01  2.2408254632478D-01  3.0864052038009D-01
57  5.6000000000000D-01  2.2812950116021D-01  2.3583336495016D-01
58  5.7000000000000D-01  2.3245645863083D-01  1.6423151160981D-01
59  5.8000000000000D-01  2.3724194427355D-01  9.4102058806660D-02
60  5.9000000000000D-01  2.4270616865335D-01  2.5705715055983D-02
61  6.0000000000000D-01  2.4910734737258D-01 -4.0704586455756D-02
62  6.1000000000000D-01  2.5673687819352D-01 -1.0488512520664D-01
63  6.2000000000000D-01  2.6591345218052D-01 -1.6660286885304D-01
64  6.3000000000000D-01  2.7697619991787D-01 -2.2563697099484D-01
65  6.4000000000000D-01  2.9027699635871D-01 -2.8178027332864D-01
66  6.5000000000000D-01  3.0617206833437D-01 -3.3484079265797D-01
67  6.6000000000000D-01  3.2501306653083D-01 -3.8464317189518D-01
68  6.7000000000000D-01  3.4713777865686D-01 -4.3103007320766D-01
69  6.8000000000000D-01  3.7286067213430D-01 -4.7386349087494D-01
70  6.9000000000000D-01  4.0246346263019D-01 -5.1302596125897D-01
71  7.0000000000000D-01  4.3618590899104D-01 -5.4842164755525D-01
72  7.1000000000000D-01  4.7421703543153D-01 -5.7997727771092D-01
73  7.2000000000000D-01  5.1668697810955D-01 -6.0764291505597D-01
74  7.3000000000000D-01  5.6365964552462D-01 -6.3139254279255D-01
75  7.4000000000000D-01  6.1512637052782D-01 -6.5122444551368D-01
76  7.5000000000000D-01  6.7100071648007D-01 -6.6716137332460D-01
77  7.6000000000000D-01  7.3111458112253D-01 -6.7925047693577D-01
78  7.7000000000000D-01  7.9521571977744D-01 -6.8756300517983D-01
79  7.8000000000000D-01  8.6296678462788D-01 -6.9219375977666D-01
80  7.9000000000000D-01  9.3394594962366D-01 -6.9326030575074D-01
81  8.0000000000000D-01  1.0076491614801D+00 -6.9090193964001D-01
82  8.1000000000000D-01  1.0834940268165D+00 -6.8527842145812D-01
83  8.2000000000000D-01  1.1608253142888D+00 -6.7656848021462D-01
84  8.3000000000000D-01  1.2389220192007D+00 -6.6496810658927D-01
85  8.4000000000000D-01  1.3170059071264D+00 -6.5068865002668D-01
86  8.5000000000000D-01  1.3942514231600D+00 -6.3395474099542D-01
87  8.6000000000000D-01  1.4697968251002D+00 -6.1500206237358D-01
88  8.7000000000000D-01  1.5427563727628D+00 -5.9407499681560D-01
89  8.8000000000000D-01  1.6122333822176D+00 -5.7142417946380D-01
90  8.9000000000000D-01  1.6773339335594D+00 -5.4730398743740D-01
91  9.0000000000000D-01  1.7371810042763D+00 -5.2196999911666D-01
92  9.1000000000000D-01  1.7909287877504D+00 -4.9567645729991D-01
93  9.2000000000000D-01  1.8377769481952D+00 -4.6867377081795D-01
94  9.3000000000000D-01  1.8769845596445D+00 -4.4120608912381D-01
95  9.4000000000000D-01  1.9078834775641D+00 -4.1350898372510D-01
96  9.5000000000000D-01  1.9298908973344D+00 -3.8580726909371D-01
97  9.6000000000000D-01  1.9425208641864D+00 -3.5831299388363D-01
98  9.7000000000000D-01  1.9453945140420D+00 -3.3122363093534D-01
99  9.8000000000000D-01  1.9382488438091D+00 -3.0472049168753D-01
100  9.9000000000000D-01  1.9209438334596D+00 -2.7896738719542D-01
101  1.0000000000000D+00  1.8934677676189D+00 -2.5410955438345D-01
102  1.0100000000000D+00  1.8559406361669D+00 -2.3027286178824D-01
103  1.0200000000000D+00  1.8086155247684D+00 -2.0756330479603D-01
104  1.0300000000000D+00  1.7518779414196D+00 -1.8606679567224D-01
105  1.0400000000000D+00  1.6862430609793D+00 -1.6584924893339D-01
106  1.0500000000000D+00  1.6123509079777D+00 -1.4695695759193D-01
107  1.0600000000000D+00  1.5309595317887D+00 -1.2941725140689D-01
108  1.0700000000000D+00  1.4429362687667D+00 -1.1323942304420D-01
109  1.0800000000000D+00  1.3492472187760D+00 -9.8415903848405D-02
110  1.0900000000000D+00  1.2509450973405D+00 -8.4923666622767D-02
111  1.1000000000000D+00  1.1491556570677D+00 -7.2725828720115D-02
112  1.1100000000000D+00  1.0450628952663D+00 -6.1773425821012D-02
113  1.1200000000000D+00  9.3989329505864D-01 -5.2007322994327D-02
114  1.1300000000000D+00  8.3489936248238D-01 -4.3360227773143D-02
115  1.1400000000000D+00  7.3134273936177D-01 -3.5758767886394D-02
116  1.1500000000000D+00  6.3047718099938D-01 -2.9125595183505D-02
117  1.1600000000000D+00  5.3353169566593D-01 -2.3381476413159D-02
118  1.1700000000000D+00  4.4169415504229D-01 -1.8447330770622D-02
119  1.1800000000000D+00  3.5609566511350D-01 -1.4246175563169D-02
120  1.1900000000000D+00  2.7779542425668D-01 -1.0704987860050D-02
121  1.2000000000000D+00  2.0776880845539D-01 -7.7562517610680D-03
122  1.2100000000000D+00  1.4689418150589D-01 -5.3395312868717D-03
123  1.2200000000000D+00  9.5942815459975D-02 -3.4044886263947D-03
124  1.2300000000000D+00  5.5480741626193D-02 -1.9109941163704D-03
125  1.2400000000000D+00  2.5784414057796D-02 -8.2988516920725D-04
126  1.2500000000000D+00  8.0498614793624D-03 -1.7275164531169D-04
127  1.2600000000000D+00  9.8629178601043D-04  8.5993503375894D-05
128  1.2700000000000D+00 -2.6345667526083D-04  5.8839137151496D-05
129  1.2800000000000D+00  9.7187372976404D-05 -1.4093415420133D-05
130  1.2900000000000D+00  3.8012070648551D-05 -4.6735461346515D-06
131  1.3000000000000D+00 -2.0084380804488D-05  3.4868399173993D-06
132  1.3100000000000D+00 -1.1111867022986D-06 -1.6332083010144D-07
133  1.3200000000000D+00 -9.1801405631551D-07 -1.3492855648119D-07
134  1.3300000000000D+00  0.0000000000000D+00  0.0000000000000D+00
135  1.3400000000000D+00  0.0000000000000D+00  0.0000000000000D+00
136  1.3500000000000D+00  0.0000000000000D+00  0.0000000000000D+00
137  1.3600000000000D+00  0.0000000000000D+00  0.0000000000000D+00
138  1.3700000000000D+00  0.0000000000000D+00  0.0000000000000D+00
139  1.3800000000000D+00  0.0000000000000D+00  0.0000000000000D+00
140  1.3900000000000D+00  0.0000000000000D+00  0.0000000000000D+00
141  1.4000000000000D+00  0.0000000000000D+00  0.0000000000000D+00
142  1.4100000000000D+00  0.0000000000000D+00  0.0000000000000D+00
143  1.4200000000000D+00  0.0000000000000D+00  0.0000000000000D+00
144  1.4300000000000D+00  0.0000000000000D+00  0.0000000000000D+00
145  1.4400000000000D+00  0.0000000000000D+00  0.0000000000000D+00
146  1.4500000000000D+00  0.0000000000000D+00  0.0000000000000D+00
147  1.4600000000000D+00  0.0000000000000D+00  0.0000000000000D+00
148  1.4700000000000D+00  0.0000000000000D+00  0.0000000000000D+00
149  1.4800000000000D+00  0.0000000000000D+00  0.0000000000000D+00
150  1.4900000000000D+00  0.0000000000000D+00  0.0000000000000D+00
151  1.5000000000000D+00  0.0000000000000D+00  0.0000000000000D+00
152  1.5100000000000D+00  0.0000000000000D+00  0.0000000000000D+00
153  1.5200000000000D+00  0.0000000000000D+00  0.0000000000000D+00
154  1.5300000000000D+00  0.0000000000000D+00  0.0000000000000D+00
155  1.5400000000000D+00  0.0000000000000D+00  0.0000000000000D+00
156  1.5500000000000D+00  0.0000000000000D+00  0.0000000000000D+00
157  1.5600000000000D+00  0.0000000000000D+00  0.0000000000000D+00
158  1.5700000000000D+00  0.0000000000000D+00  0.0000000000000D+00
159  1.5800000000000D+00  0.0000000000000D+00  0.0000000000000D+00
160  1.5900000000000D+00  0.0000000000000D+00  0.0000000000000D+00
161  1.6000000000000D+00  0.0000000000000D+00  0.0000000000000D+00
162  1.6100000000000D+00  0.0000000000000D+00  0.0000000000000D+00
163  1.6200000000000D+00  0.0000000000000D+00  0.0000000000000D+00
164  1.6300000000000D+00  0.0000000000000D+00  0.0000000000000D+00
165  1.6400000000000D+00  0.0000000000000D+00  0.0000000000000D+00
166  1.6500000000000D+00  0.0000000000000D+00  0.0000000000000D+00
167  1.6600000000000D+00  0.0000000000000D+00  0.0000000000000D+00
168  1.6700000000000D+00  0.0000000000000D+00  0.0000000000000D+00
169  1.6800000000000D+00  0.0000000000000D+00  0.0000000000000D+00
170  1.6900000000000D+00  0.0000000000000D+00  0.0000000000000D+00
171  1.7000000000000D+00  0.0000000000000D+00  0.0000000000000D+00
172  1.7100000000000D+00  0.0000000000000D+00  0.0000000000000D+00
173  1.7200000000000D+00  0.0000000000000D+00  0.0000000000000D+00
174  1.7300000000000D+00  0.0000000000000D+00  0.0000000000000D+00
175  1.7400000000000D+00  0.0000000000000D+00  0.0000000000000D+00
176  1.7500000000000D+00  0.0000000000000D+00  0.0000000000000D+00
177  1.7600000000000D+00  0.0000000000000D+00  0.0000000000000D+00
178  1.7700000000000D+00  0.0000000000000D+00  0.0000000000000D+00
179  1.7800000000000D+00  0.0000000000000D+00  0.0000000000000D+00
180  1.7900000000000D+00  0.0000000000000D+00  0.0000000000000D+00
181  1.8000000000000D+00  0.0000000000000D+00  0.0000000000000D+00
182  1.8100000000000D+00  0.0000000000000D+00  0.0000000000000D+00
183  1.8200000000000D+00  0.0000000000000D+00  0.0000000000000D+00
184  1.8300000000000D+00  0.0000000000000D+00  0.0000000000000D+00
185  1.8400000000000D+00  0.0000000000000D+00  0.0000000000000D+00
186  1.8500000000000D+00  0.0000000000000D+00  0.0000000000000D+00
187  1.8600000000000D+00  0.0000000000000D+00  0.0000000000000D+00
188  1.8700000000000D+00  0.0000000000000D+00  0.0000000000000D+00
189  1.8800000000000D+00  0.0000000000000D+00  0.0000000000000D+00
190  1.8900000000000D+00  0.0000000000000D+00  0.0000000000000D+00
191  1.9000000000000D+00  0.0000000000000D+00  0.0000000000000D+00
192  1.9100000000000D+00  0.0000000000000D+00  0.0000000000000D+00
193  1.9200000000000D+00  0.0000000000000D+00  0.0000000000000D+00
194  1.9300000000000D+00  0.0000000000000D+00  0.0000000000000D+00
195  1.9400000000000D+00  0.0000000000000D+00  0.0000000000000D+00
196  1.9500000000000D+00  0.0000000000000D+00  0.0000000000000D+00
197  1.9600000000000D+00  0.0000000000000D+00  0.0000000000000D+00
198  1.9700000000000D+00  0.0000000000000D+00  0.0000000000000D+00
199  1.9800000000000D+00  0.0000000000000D+00  0.0000000000000D+00
200  1.9900000000000D+00  0.0000000000000D+00  0.0000000000000D+00
201  2.0000000000000D+00  0.0000000000000D+00  0.0000000000000D+00
202  2.0100000000000D+00  0.0000000000000D+00  0.0000000000000D+00
203  2.0200000000000D+00  0.0000000000000D+00  0.0000000000000D+00
204  2.0300000000000D+00  0.0000000000000D+00  0.0000000000000D+00
205  2.0400000000000D+00  0.0000000000000D+00  0.0000000000000D+00
206  2.0500000000000D+00  0.0000000000000D+00  0.0000000000000D+00
207  2.0600000000000D+00  0.0000000000000D+00  0.0000000000000D+00
208  2.0700000000000D+00  0.0000000000000D+00  0.0000000000000D+00
209  2.0800000000000D+00  0.0000000000000D+00  0.0000000000000D+00
210  2.0900000000000D+00  0.0000000000000D+00  0.0000000000000D+00
211  2.1000000000000D+00  0.0000000000000D+00  0.0000000000000D+00
212  2.1100000000000D+00  0.0000000000000D+00  0.0000000000000D+00
213  2.1200000000000D+00  0.0000000000000D+00  0.0000000000000D+00
214  2.1300000000000D+00  0.0000000000000D+00  0.0000000000000D+00
215  2.1400000000000D+00  0.0000000000000D+00  0.0000000000000D+00
216  2.1500000000000D+00  0.0000000000000D+00  0.0000000000000D+00
217  2.1600000000000D+00  0.0000000000000D+00  0.0000000000000D+00
218  2.1700000000000D+00  0.0000000000000D+00  0.0000000000000D+00
219  2.1800000000000D+00  0.0000000000000D+00  0.0000000000000D+00
220  2.1900000000000D+00  0.0000000000000D+00  0.0000000000000D+00
221  2.2000000000000D+00  0.0000000000000D+00  0.0000000000000D+00
222  2.2100000000000D+00  0.0000000000000D+00  0.0000000000000D+00
223  2.2200000000000D+00  0.0000000000000D+00  0.0000000000000D+00
224  2.2300000000000D+00  0.0000000000000D+00  0.0000000000000D+00
225  2.2400000000000D+00  0.0000000000000D+00  0.0000000000000D+00
226  2.2500000000000D+00  0.0000000000000D+00  0.0000000000000D+00
227  2.2600000000000D+00  0.0000000000000D+00  0.0000000000000D+00
228  2.2700000000000D+00  0.0000000000000D+00  0.0000000000000D+00
229  2.2800000000000D+00  0.0000000000000D+00  0.0000000000000D+00
230  2.2900000000000D+00  0.0000000000000D+00  0.0000000000000D+00
231  2.3000000000000D+00  0.0000000000000D+00  0.0000000000000D+00
232  2.3100000000000D+00  0.0000000000000D+00  0.0000000000000D+00
233  2.3200000000000D+00  0.0000000000000D+00  0.0000000000000D+00
234  2.3300000000000D+00  0.0000000000000D+00  0.0000000000000D+00
235  2.3400000000000D+00  0.0000000000000D+00  0.0000000000000D+00
236  2.3500000000000D+00  0.0000000000000D+00  0.0000000000000D+00
237  2.3600000000000D+00  0.0000000000000D+00  0.0000000000000D+00
238  2.3700000000000D+00  0.0000000000000D+00  0.0000000000000D+00
239  2.3800000000000D+00  0.0000000000000D+00  0.0000000000000D+00
240  2.3900000000000D+00  0.0000000000000D+00  0.0000000000000D+00
241  2.4000000000000D+00  0.0000000000000D+00  0.0000000000000D+00
242  2.4100000000000D+00  0.0000000000000D+00  0.0000000000000D+00
243  2.4200000000000D+00  0.0000000000000D+00  0.0000000000000D+00
244  2.4300000000000D+00  0.0000000000000D+00  0.0000000000000D+00
245  2.4400000000000D+00  0.0000000000000D+00  0.0000000000000D+00
246  2.4500000000000D+00  0.0000000000000D+00  0.0000000000000D+00
247  2.4600000000000D+00  0.0000000000000D+00  0.0000000000000D+00
248  2.4700000000000D+00  0.0000000000000D+00  0.0000000000000D+00
249  2.4800000000000D+00  0.0000000000000D+00  0.0000000000000D+00
250  2.4900000000000D+00  0.0000000000000D+00  0.0000000000000D+00
251  2.5000000000000D+00  0.0000000000000D+00  0.0000000000000D+00
252  2.5100000000000D+00  0.0000000000000D+00  0.0000000000000D+00
253  2.5200000000000D+00  0.0000000000000D+00  0.0000000000000D+00
254  2.5300000000000D+00  0.0000000000000D+00  0.0000000000000D+00
255  2.5400000000000D+00  0.0000000000000D+00  0.0000000000000D+00
256  2.5500000000000D+00  0.0000000000000D+00  0.0000000000000D+00
257  2.5600000000000D+00  0.0000000000000D+00  0.0000000000000D+00
258  2.5700000000000D+00  0.0000000000000D+00  0.0000000000000D+00
259  2.5800000000000D+00  0.0000000000000D+00  0.0000000000000D+00
260  2.5900000000000D+00  0.0000000000000D+00  0.0000000000000D+00
261  2.6000000000000D+00  0.0000000000000D+00  0.0000000000000D+00
262  2.6100000000000D+00  0.0000000000000D+00  0.0000000000000D+00
263  2.6200000000000D+00  0.0000000000000D+00  0.0000000000000D+00
264  2.6300000000000D+00  0.0000000000000D+00  0.0000000000000D+00
265  2.6400000000000D+00  0.0000000000000D+00  0.0000000000000D+00
266  2.6500000000000D+00  0.0000000000000D+00  0.0000000000000D+00
267  2.6600000000000D+00  0.0000000000000D+00  0.0000000000000D+00
268  2.6700000000000D+00  0.0000000000000D+00  0.0000000000000D+00
269  2.6800000000000D+00  0.0000000000000D+00  0.0000000000000D+00
270  2.6900000000000D+00  0.0000000000000D+00  0.0000000000000D+00
271  2.7000000000000D+00  0.0000000000000D+00  0.0000000000000D+00
272  2.7100000000000D+00  0.0000000000000D+00  0.0000000000000D+00
273  2.7200000000000D+00  0.0000000000000D+00  0.0000000000000D+00
274  2.7300000000000D+00  0.0000000000000D+00  0.0000000000000D+00
275  2.7400000000000D+00  0.0000000000000D+00  0.0000000000000D+00
276  2.7500000000000D+00  0.0000000000000D+00  0.0000000000000D+00
277  2.7600000000000D+00  0.0000000000000D+00  0.0000000000000D+00
278  2.7700000000000D+00  0.0000000000000D+00  0.0000000000000D+00
279  2.7800000000000D+00  0.0000000000000D+00  0.0000000000000D+00
280  2.7900000000000D+00  0.0000000000000D+00  0.0000000000000D+00
281  2.8000000000000D+00  0.0000000000000D+00  0.0000000000000D+00
282  2.8100000000000D+00  0.0000000000000D+00  0.0000000000000D+00
283  2.8200000000000D+00  0.0000000000000D+00  0.0000000000000D+00
284  2.8300000000000D+00  0.0000000000000D+00  0.0000000000000D+00
285  2.8400000000000D+00  0.0000000000000D+00  0.0000000000000D+00
286  2.8500000000000D+00  0.0000000000000D+00  0.0000000000000D+00
287  2.8600000000000D+00  0.0000000000000D+00  0.0000000000000D+00
288  2.8700000000000D+00  0.0000000000000D+00  0.0000000000000D+00
289  2.8800000000000D+00  0.0000000000000D+00  0.0000000000000D+00
290  2.8900000000000D+00  0.0000000000000D+00  0.0000000000000D+00
291  2.9000000000000D+00  0.0000000000000D+00  0.0000000000000D+00
292  2.9100000000000D+00  0.0000000000000D+00  0.0000000000000D+00
293  2.9200000000000D+00  0.0000000000000D+00  0.0000000000000D+00
294  2.9300000000000D+00  0.0000000000000D+00  0.0000000000000D+00
295  2.9400000000000D+00  0.0000000000000D+00  0.0000000000000D+00
296  2.9500000000000D+00  0.0000000000000D+00  0.0000000000000D+00
297  2.9600000000000D+00  0.0000000000000D+00  0.0000000000000D+00
298  2.9700000000000D+00  0.0000000000000D+00  0.0000000000000D+00
299  2.9800000000000D+00  0.0000000000000D+00  0.0000000000000D+00
300  2.9900000000000D+00  0.0000000000000D+00  0.0000000000000D+00
301  3.0000000000000D+00  0.0000000000000D+00  0.0000000000000D+00
302  3.0100000000000D+00  0.0000000000000D+00  0.0000000000000D+00
303  3.0200000000000D+00  0.0000000000000D+00  0.0000000000000D+00
304  3.0300000000000D+00  0.0000000000000D+00  0.0000000000000D+00
305  3.0400000000000D+00  0.0000000000000D+00  0.0000000000000D+00
306  3.0500000000000D+00  0.0000000000000D+00  0.0000000000000D+00
307  3.0600000000000D+00  0.0000000000000D+00  0.0000000000000D+00
308  3.0700000000000D+00  0.0000000000000D+00  0.0000000000000D+00
309  3.0800000000000D+00  0.0000000000000D+00  0.0000000000000D+00
310  3.0900000000000D+00  0.0000000000000D+00  0.0000000000000D+00
311  3.1000000000000D+00  0.0000000000000D+00  0.0000000000000D+00
312  3.1100000000000D+00  0.0000000000000D+00  0.0000000000000D+00
313  3.1200000000000D+00  0.0000000000000D+00  0.0000000000000D+00
314  3.1300000000000D+00  0.0000000000000D+00  0.0000000000000D+00
315  3.1400000000000D+00  0.0000000000000D+00  0.0000000000000D+00
316  3.1500000000000D+00  0.0000000000000D+00  0.0000000000000D+00
317  3.1600000000000D+00  0.0000000000000D+00  0.0000000000000D+00
318  3.1700000000000D+00  0.0000000000000D+00  0.0000000000000D+00
319  3.1800000000000D+00  0.0000000000000D+00  0.0000000000000D+00
320  3.1900000000000D+00  0.0000000000000D+00  0.0000000000000D+00
321  3.2000000000000D+00  0.0000000000000D+00  0.0000000000000D+00
322  3.2100000000000D+00  0.0000000000000D+00  0.0000000000000D+00
323  3.2200000000000D+00  0.0000000000000D+00  0.0000000000000D+00
324  3.2300000000000D+00  0.0000000000000D+00  0.0000000000000D+00
325  3.2400000000000D+00  0.0000000000000D+00  0.0000000000000D+00
326  3.2500000000000D+00  0.0000000000000D+00  0.0000000000000D+00
327  3.2600000000000D+00  0.0000000000000D+00  0.0000000000000D+00
328  3.2700000000000D+00  0.0000000000000D+00  0.0000000000000D+00
329  3.2800000000000D+00  0.0000000000000D+00  0.0000000000000D+00
330  3.2900000000000D+00  0.0000000000000D+00  0.0000000000000D+00
331  3.3000000000000D+00  0.0000000000000D+00  0.0000000000000D+00
332  3.3100000000000D+00  0.0000000000000D+00  0.0000000000000D+00
333  3.3200000000000D+00  0.0000000000000D+00  0.0000000000000D+00
334  3.3300000000000D+00  0.0000000000000D+00  0.0000000000000D+00
335  3.3400000000000D+00  0.0000000000000D+00  0.0000000000000D+00
336  3.3500000000000D+00  0.0000000000000D+00  0.0000000000000D+00
337  3.3600000000000D+00  0.0000000000000D+00  0.0000000000000D+00
338  3.3700000000000D+00  0.0000000000000D+00  0.0000000000000D+00
339  3.3800000000000D+00  0.0000000000000D+00  0.0000000000000D+00
340  3.3900000000000D+00  0.0000000000000D+00  0.0000000000000D+00
341  3.4000000000000D+00  0.0000000000000D+00  0.0000000000000D+00
342  3.4100000000000D+00  0.0000000000000D+00  0.0000000000000D+00
343  3.4200000000000D+00  0.0000000000000D+00  0.0000000000000D+00
344  3.4300000000000D+00  0.0000000000000D+00  0.0000000000000D+00
345  3.4400000000000D+00  0.0000000000000D+00  0.0000000000000D+00
346  3.4500000000000D+00  0.0000000000000D+00  0.0000000000000D+00
347  3.4600000000000D+00  0.0000000000000D+00  0.0000000000000D+00
348  3.4700000000000D+00  0.0000000000000D+00  0.0000000000000D+00
349  3.4800000000000D+00  0.0000000000000D+00  0.0000000000000D+00
350  3.4900000000000D+00  0.0000000000000D+00  0.0000000000000D+00
351  3.5000000000000D+00  0.0000000000000D+00  0.0000000000000D+00
352  3.5100000000000D+00  0.0000000000000D+00  0.0000000000000D+00
353  3.5200000000000D+00  0.0000000000000D+00  0.0000000000000D+00
354  3.5300000000000D+00  0.0000000000000D+00  0.0000000000000D+00
355  3.5400000000000D+00  0.0000000000000D+00  0.0000000000000D+00
356  3.5500000000000D+00  0.0000000000000D+00  0.0000000000000D+00
357  3.5600000000000D+00  0.0000000000000D+00  0.0000000000000D+00
358  3.5700000000000D+00  0.0000000000000D+00  0.0000000000000D+00
359  3.5800000000000D+00  0.0000000000000D+00  0.0000000000000D+00
360  3.5900000000000D+00  0.0000000000000D+00  0.0000000000000D+00
361  3.6000000000000D+00  0.0000000000000D+00  0.0000000000000D+00
362  3.6100000000000D+00  0.0000000000000D+00  0.0000000000000D+00
363  3.6200000000000D+00  0.0000000000000D+00  0.0000000000000D+00
364  3.6300000000000D+00  0.0000000000000D+00  0.0000000000000D+00
365  3.6400000000000D+00  0.0000000000000D+00  0.0000000000000D+00
366  3.6500000000000D+00  0.0000000000000D+00  0.0000000000000D+00
367  3.6600000000000D+00  0.0000000000000D+00  0.0000000000000D+00
368  3.6700000000000D+00  0.0000000000000D+00  0.0000000000000D+00
369  3.6800000000000D+00  0.0000000000000D+00  0.0000000000000D+00
370  3.6900000000000D+00  0.0000000000000D+00  0.0000000000000D+00
371  3.7000000000000D+00  0.0000000000000D+00  0.0000000000000D+00
372  3.7100000000000D+00  0.0000000000000D+00  0.0000000000000D+00
373  3.7200000000000D+00  0.0000000000000D+00  0.0000000000000D+00
374  3.7300000000000D+00  0.0000000000000D+00  0.0000000000000D+00
375  3.7400000000000D+00  0.0000000000000D+00  0.0000000000000D+00
376  3.7500000000000D+00  0.0000000000000D+00  0.0000000000000D+00
377  3.7600000000000D+00  0.0000000000000D+00  0.0000000000000D+00
378  3.7700000000000D+00  0.0000000000000D+00  0.0000000000000D+00
379  3.7800000000000D+00  0.0000000000000D+00  0.0000000000000D+00
380  3.7900000000000D+00  0.0000000000000D+00  0.0000000000000D+00
381  3.8000000000000D+00  0.0000000000000D+00  0.0000000000000D+00
382  3.8100000000000D+00  0.0000000000000D+00  0.0000000000000D+00
383  3.8200000000000D+00  0.0000000000000D+00  0.0000000000000D+00
384  3.8300000000000D+00  0.0000000000000D+00  0.0000000000000D+00
385  3.8400000000000D+00  0.0000000000000D+00  0.0000000000000D+00
386  3.8500000000000D+00  0.0000000000000D+00  0.0000000000000D+00
387  3.8600000000000D+00  0.0000000000000D+00  0.0000000000000D+00
388  3.8700000000000D+00  0.0000000000000D+00  0.0000000000000D+00
389  3.8800000000000D+00  0.0000000000000D+00  0.0000000000000D+00
390  3.8900000000000D+00  0.0000000000000D+00  0.0000000000000D+00
391  3.9000000000000D+00  0.0000000000000D+00  0.0000000000000D+00
392  3.9100000000000D+00  0.0000000000000D+00  0.0000000000000D+00
393  3.9200000000000D+00  0.0000000000000D+00  0.0000000000000D+00
394  3.9300000000000D+00  0.0000000000000D+00  0.0000000000000D+00
395  3.9400000000000D+00  0.0000000000000D+00  0.0000000000000D+00
396  3.9500000000000D+00  0.0000000000000D+00  0.0000000000000D+00
397  3.9600000000000D+00  0.0000000000000D+00  0.0000000000000D+00
398  3.9700000000000D+00  0.0000000000000D+00  0.0000000000000D+00
399  3.9800000000000D+00  0.0000000000000D+00  0.0000000000000D+00
400  3.9900000000000D+00  0.0000000000000D+00  0.0000000000000D+00
401  4.0000000000000D+00  0.0000000000000D+00  0.0000000000000D+00
402  4.0100000000000D+00  0.0000000000000D+00  0.0000000000000D+00
403  4.0200000000000D+00  0.0000000000000D+00  0.0000000000000D+00
404  4.0300000000000D+00  0.0000000000000D+00  0.0000000000000D+00
405  4.0400000000000D+00  0.0000000000000D+00  0.0000000000000D+00
406  4.0500000000000D+00  0.0000000000000D+00  0.0000000000000D+00
407  4.0600000000000D+00  0.0000000000000D+00  0.0000000000000D+00
408  4.0700000000000D+00  0.0000000000000D+00  0.0000000000000D+00
409  4.0800000000000D+00  0.0000000000000D+00  0.0000000000000D+00
410  4.0900000000000D+00  0.0000000000000D+00  0.0000000000000D+00
411  4.1000000000000D+00  0.0000000000000D+00  0.0000000000000D+00
412  4.1100000000000D+00  0.0000000000000D+00  0.0000000000000D+00
413  4.1200000000000D+00  0.0000000000000D+00  0.0000000000000D+00
414  4.1300000000000D+00  0.0000000000000D+00  0.0000000000000D+00
415  4.1400000000000D+00  0.0000000000000D+00  0.0000000000000D+00
416  4.1500000000000D+00  0.0000000000000D+00  0.0000000000000D+00
417  4.1600000000000D+00  0.0000000000000D+00  0.0000000000000D+00
418  4.1700000000000D+00  0.0000000000000D+00  0.0000000000000D+00
419  4.1800000000000D+00  0.0000000000000D+00  0.0000000000000D+00
420  4.1900000000000D+00  0.0000000000000D+00  0.0000000000000D+00
421  4.2000000000000D+00  0.0000000000000D+00  0.0000000000000D+00
422  4.2100000000000D+00  0.0000000000000D+00  0.0000000000000D+00
423  4.2200000000000D+00  0.0000000000000D+00  0.0000000000000D+00
424  4.2300000000000D+00  0.0000000000000D+00  0.0000000000000D+00
425  4.2400000000000D+00  0.0000000000000D+00  0.0000000000000D+00
426  4.2500000000000D+00  0.0000000000000D+00  0.0000000000000D+00
427  4.2600000000000D+00  0.0000000000000D+00  0.0000000000000D+00
428  4.2700000000000D+00  0.0000000000000D+00  0.0000000000000D+00
429  4.2800000000000D+00  0.0000000000000D+00  0.0000000000000D+00
430  4.2900000000000D+00  0.0000000000000D+00  0.0000000000000D+00
431  4.3000000000000D+00  0.0000000000000D+00  0.0000000000000D+00
432  4.3100000000000D+00  0.0000000000000D+00  0.0000000000000D+00
433  4.3200000000000D+00  0.0000000000000D+00  0.0000000000000D+00
434  4.3300000000000D+00  0.0000000000000D+00  0.0000000000000D+00
435  4.3400000000000D+00  0.0000000000000D+00  0.0000000000000D+00
436  4.3500000000000D+00  0.0000000000000D+00  0.0000000000000D+00
437  4.3600000000000D+00  0.0000000000000D+00  0.0000000000000D+00
438  4.3700000000000D+00  0.0000000000000D+00  0.0000000000000D+00
439  4.3800000000000D+00  0.0000000000000D+00  0.0000000000000D+00
440  4.3900000000000D+00  0.0000000000000D+00  0.0000000000000D+00
441  4.4000000000000D+00  0.0000000000000D+00  0.0000000000000D+00
442  4.4100000000000D+00  0.0000000000000D+00  0.0000000000000D+00
443  4.4200000000000D+00  0.0000000000000D+00  0.0000000000000D+00