O     ONCVPSP-3.3.0  r_core=   1.35509   1.45563   1.26150
8.0000      6.0000      180430    zatom,zion,pspd
8 -116133   2     4   600     0    pspcod,pspxc,lmax,lloc,mmax,r2well
5.99000000  4.00000000  0.00000000    rchrg fchrg qchrg
2     2     2     0    nproj
3     1           extension_switch
2     2     0    nprojso
0                         8.2034924192102D-01  6.0500248620881D+00
1  0.0000000000000D+00  5.6940941961514D-09 -2.2557860024364D-09
2  1.0000000000000D-02 -3.8288327456088D-02  9.6701761572623D-02
3  2.0000000000000D-02 -7.6100578043525D-02  1.9303131921886D-01
4  3.0000000000000D-02 -1.1296657753032D-01  2.8861932687915D-01
5  4.0000000000000D-02 -1.4842786649999D-01  3.8310211700631D-01
6  5.0000000000000D-02 -1.8204333309870D-01  4.7612444735622D-01
7  6.0000000000000D-02 -2.1339458032076D-01  5.6734213845602D-01
8  7.0000000000000D-02 -2.4209094615704D-01  6.5642456800718D-01
9  8.0000000000000D-02 -2.6777410062538D-01  7.4305699073664D-01
10  9.0000000000000D-02 -2.9012215064218D-01  8.2694265495911D-01
11  1.0000000000000D-01 -3.0885319176522D-01  9.0780469031271D-01
12  1.1000000000000D-01 -3.2372825490814D-01  9.8538774472550D-01
13  1.2000000000000D-01 -3.3455360604438D-01  1.0594593526042D+00
14  1.3000000000000D-01 -3.4118236752248D-01  1.1298110204437D+00
15  1.4000000000000D-01 -3.4351544072701D-01  1.1962590204663D+00
16  1.5000000000000D-01 -3.4150172125876D-01  1.2586448874458D+00
17  1.6000000000000D-01 -3.3513760938321D-01  1.3168356184713D+00
18  1.7000000000000D-01 -3.2446583001664D-01  1.3707235799894D+00
19  1.8000000000000D-01 -3.0957358779298D-01  1.4202261309577D+00
20  1.9000000000000D-01 -2.9059009359386D-01  1.4652849752628D+00
21  2.0000000000000D-01 -2.6768350914934D-01  1.5058652606450D+00
22  2.1000000000000D-01 -2.4105736575582D-01  1.5419544451548D+00
23  2.2000000000000D-01 -2.1094652165315D-01  1.5735609555760D+00
24  2.3000000000000D-01 -1.7761273001160D-01  1.6007126652477D+00
25  2.4000000000000D-01 -1.4133989567628D-01  1.6234552212285D+00
26  2.5000000000000D-01 -1.0242910369614D-01  1.6418502527561D+00
27  2.6000000000000D-01 -6.1193506143023D-02  1.6559734944062D+00
28  2.7000000000000D-01 -1.7953155743193D-02  1.6659128582437D+00
29  2.8000000000000D-01  2.6970124638873D-02  1.6717664895545D+00
30  2.9000000000000D-01  7.3257748616347D-02  1.6736408404549D+00
31  3.0000000000000D-01  1.2059916343778D-01  1.6716487947979D+00
32  3.1000000000000D-01  1.6869635607670D-01  1.6659078763451D+00
33  3.2000000000000D-01  2.1726799198887D-01  1.6565385701769D+00
34  3.3000000000000D-01  2.6605311692653D-01  1.6436627848061D+00
35  3.4000000000000D-01  3.1481436005720D-01  1.6274024794758D+00
36  3.5000000000000D-01  3.6334058556185D-01  1.6078784777289D+00
37  3.6000000000000D-01  4.1144894974445D-01  1.5852094845652D+00
38  3.7000000000000D-01  4.5898633129788D-01  1.5595113204474D+00
39  3.8000000000000D-01  5.0583011357678D-01  1.5308963811201D+00
40  3.9000000000000D-01  5.5188830932142D-01  1.4994733277627D+00
41  4.0000000000000D-01  5.9709903008075D-01  1.4653470074631D+00
42  4.1000000000000D-01  6.4142931438200D-01  1.4286185994772D+00
43  4.2000000000000D-01  6.8487334029973D-01  1.3893859782768D+00
44  4.3000000000000D-01  7.2745005928137D-01  1.3477442800981D+00
45  4.4000000000000D-01  7.6920029870314D-01  1.3037866556249D+00
46  4.5000000000000D-01  8.1018339047048D-01  1.2576051876782D+00
47  4.6000000000000D-01  8.5047339187061D-01  1.2092919493806D+00
48  4.7000000000000D-01  8.9015497267353D-01  1.1589401752945D+00
49  4.8000000000000D-01  9.2931904902101D-01  1.1066455155471D+00
50  4.9000000000000D-01  9.6805824982201D-01  1.0525073410005D+00
51  5.0000000000000D-01  1.0064623050867D+00  9.9663006614027D-01
52  5.1000000000000D-01  1.0446134478102D+00  9.3912445556619D-01
53  5.2000000000000D-01  1.0825819216078D+00  8.8010887979629D-01
54  5.3000000000000D-01  1.1204216852851D+00  8.1971048655031D-01
55  5.4000000000000D-01  1.1581664029060D+00  7.5806625474920D-01
56  5.5000000000000D-01  1.1958258037266D+00  6.9532390015357D-01
57  5.6000000000000D-01  1.2333824906463D+00  6.3164260383356D-01
58  5.7000000000000D-01  1.2707892687018D+00  5.6719353748134D-01
59  5.8000000000000D-01  1.3079670566381D+00  5.0216016291673D-01
60  5.9000000000000D-01  1.3448034349734D+00  4.3673828691379D-01
61  6.0000000000000D-01  1.3811518732381D+00  3.7113585667684D-01
62  6.1000000000000D-01  1.4168316675510D+00  3.0557248579457D-01
63  6.2000000000000D-01  1.4516286074298D+00  2.4027870528244D-01
64  6.3000000000000D-01  1.4852963780189D+00  1.7549493926946D-01
65  6.4000000000000D-01  1.5175586909670D+00  1.1147020991437D-01
66  6.5000000000000D-01  1.5481121241014D+00  4.8460581205417D-02
67  6.6000000000000D-01  1.5766296372230D+00 -1.3272643746339D-02
68  6.7000000000000D-01  1.6027647188686D+00 -7.3464952500713D-02
69  6.8000000000000D-01  1.6261561069882D+00 -1.3185085617890D-01
70  6.9000000000000D-01  1.6464330154368D+00 -1.8816629723390D-01
71  7.0000000000000D-01  1.6632207881454D+00 -2.4215120006309D-01
72  7.1000000000000D-01  1.6761468939186D+00 -2.9355212905523D-01
73  7.2000000000000D-01  1.6848471673067D+00 -3.4212501585668D-01
74  7.3000000000000D-01  1.6889721949530D+00 -3.8763791541300D-01
75  7.4000000000000D-01  1.6881937423792D+00 -4.2987374875317D-01
76  7.5000000000000D-01  1.6822111134399D+00 -4.6863298956651D-01
77  7.6000000000000D-01  1.6707573336875D+00 -5.0373625140006D-01
78  7.7000000000000D-01  1.6536050497245D+00 -5.3502673279558D-01
79  7.8000000000000D-01  1.6305720392372D+00 -5.6237247888321D-01
80  7.9000000000000D-01  1.6015262308139D+00 -5.8566841984936D-01
81  8.0000000000000D-01  1.5663901387859D+00 -6.0483814927479D-01
82  8.1000000000000D-01  1.5251446261097D+00 -6.1983540856123D-01
83  8.2000000000000D-01  1.4778319176225D+00 -6.3064524748853D-01
84  8.3000000000000D-01  1.4245577967215D+00 -6.3728483531157D-01
85  8.4000000000000D-01  1.3654929304654D+00 -6.3980390165465D-01
86  8.5000000000000D-01  1.3008732811030D+00 -6.3828479171603D-01
87  8.6000000000000D-01  1.2309995758920D+00 -6.3284212587687D-01
88  8.7000000000000D-01  1.1562358215610D+00 -6.2362205962926D-01
89  8.8000000000000D-01  1.0770068646586D+00 -6.1080114570672D-01
90  8.9000000000000D-01  9.9379501409238D-01 -5.9458480632060D-01
91  9.0000000000000D-01  9.0713575712939D-01 -5.7520542938224D-01
92  9.1000000000000D-01  8.1761261477985D-01 -5.5292010842399D-01
93  9.2000000000000D-01  7.2585119655813D-01 -5.2800805152921D-01
94  9.3000000000000D-01  6.3251252788789D-01 -5.0076768984561D-01
95  9.4000000000000D-01  5.3828573565846D-01 -4.7151352110301D-01
96  9.5000000000000D-01  4.4388018844265D-01 -4.4057272790017D-01
97  9.6000000000000D-01  3.5001719745901D-01 -4.0828161429261D-01
98  9.7000000000000D-01  2.5742139233563D-01 -3.7498190733699D-01
99  9.8000000000000D-01  1.6681189197313D-01 -3.4101697267483D-01
100  9.9000000000000D-01  7.8893395136024D-02 -3.0672799490045D-01
101  1.0000000000000D+00 -5.6526821315984D-03 -2.7245017437569D-01
102  1.0100000000000D+00 -8.6176894753951D-02 -2.3850899224748D-01
103  1.0200000000000D+00 -1.6207015667268D-01 -2.0521659469814D-01
104  1.0300000000000D+00 -2.3277170644695D-01 -1.7286834594646D-01
105  1.0400000000000D+00 -2.9777653368647D-01 -1.4173959724189D-01
106  1.0500000000000D+00 -3.5664215767052D-01 -1.1208271580497D-01
107  1.0600000000000D+00 -4.0899465757416D-01 -8.4124414389588D-02
108  1.0700000000000D+00 -4.5453386621373D-01 -5.8063417089466D-02
109  1.0800000000000D+00 -4.9303765074333D-01 -3.4068492362862D-02
110  1.0900000000000D+00 -5.2436521781833D-01 -1.2276878573666D-02
111  1.1000000000000D+00 -5.4845939653242D-01  7.2068790051060D-03
112  1.1100000000000D+00 -5.6534786559427D-01  2.4311666070130D-02
113  1.1200000000000D+00 -5.7514331124191D-01  3.9000106437462D-02
114  1.1300000000000D+00 -5.7804251639267D-01  5.1268438467976D-02
115  1.1400000000000D+00 -5.7432440104957D-01  6.1145968602504D-02
116  1.1500000000000D+00 -5.6434704637721D-01  6.8694114808095D-02
117  1.1600000000000D+00 -5.4854375649699D-01  7.4005061405443D-02
118  1.1700000000000D+00 -5.2741823141275D-01  7.7200053976245D-02
119  1.1800000000000D+00 -5.0153893332586D-01  7.8427367573011D-02
120  1.1900000000000D+00 -4.7153247534396D-01  7.7859896344359D-02
121  1.2000000000000D+00 -4.3807727164178D-01  7.5692784943204D-02
122  1.2100000000000D+00 -4.0189561986544D-01  7.2140499988368D-02
123  1.2200000000000D+00 -3.6373760016277D-01  6.7431204161722D-02
124  1.2300000000000D+00 -3.2436394650143D-01  6.1800641511551D-02
125  1.2400000000000D+00 -2.8453071946327D-01  5.5486516767693D-02
126  1.2500000000000D+00 -2.4498089407757D-01  4.8725082187316D-02
127  1.2600000000000D+00 -2.0643429806306D-01  4.1747200606228D-02
128  1.2700000000000D+00 -1.6957815057456D-01  3.4774616935119D-02
129  1.2800000000000D+00 -1.3505797351962D-01  2.8016374707550D-02
130  1.2900000000000D+00 -1.0346909485243D-01  2.1665459863078D-02
131  1.3000000000000D+00 -7.5348817952447D-02  1.5895704995718D-02
132  1.3100000000000D+00 -5.1175917786143D-02  1.0860407721769D-02
133  1.3200000000000D+00 -3.1341405295097D-02  6.6849349155958D-03
134  1.3300000000000D+00 -1.6075493490366D-02  3.4496894074200D-03
135  1.3400000000000D+00 -5.9416584953614D-03  1.2979686974656D-03
136  1.3500000000000D+00 -1.0337223249002D-03  2.5918955819917D-04
137  1.3600000000000D+00  2.8797560845850D-04 -3.4093902349341D-05
138  1.3700000000000D+00  5.5059263285762D-05 -9.0655216833922D-06
139  1.3800000000000D+00 -9.6555293241475D-05  1.6718470580311D-05
140  1.3900000000000D+00  8.0766527487825D-06 -1.2871091759022D-06
141  1.4000000000000D+00  1.2614317458365D-05 -2.0653617868757D-06
142  1.4100000000000D+00  1.1673121193191D-07 -1.1951030615317D-07
143  1.4200000000000D+00  2.9625854920397D-08 -3.0331176495034D-08
144  1.4300000000000D+00  0.0000000000000D+00  0.0000000000000D+00
145  1.4400000000000D+00  0.0000000000000D+00  0.0000000000000D+00
146  1.4500000000000D+00  0.0000000000000D+00  0.0000000000000D+00
147  1.4600000000000D+00  0.0000000000000D+00  0.0000000000000D+00
148  1.4700000000000D+00  0.0000000000000D+00  0.0000000000000D+00
149  1.4800000000000D+00  0.0000000000000D+00  0.0000000000000D+00
150  1.4900000000000D+00  0.0000000000000D+00  0.0000000000000D+00
151  1.5000000000000D+00  0.0000000000000D+00  0.0000000000000D+00
152  1.5100000000000D+00  0.0000000000000D+00  0.0000000000000D+00
153  1.5200000000000D+00  0.0000000000000D+00  0.0000000000000D+00
154  1.5300000000000D+00  0.0000000000000D+00  0.0000000000000D+00
155  1.5400000000000D+00  0.0000000000000D+00  0.0000000000000D+00
156  1.5500000000000D+00  0.0000000000000D+00  0.0000000000000D+00
157  1.5600000000000D+00  0.0000000000000D+00  0.0000000000000D+00
158  1.5700000000000D+00  0.0000000000000D+00  0.0000000000000D+00
159  1.5800000000000D+00  0.0000000000000D+00  0.0000000000000D+00
160  1.5900000000000D+00  0.0000000000000D+00  0.0000000000000D+00
161  1.6000000000000D+00  0.0000000000000D+00  0.0000000000000D+00
162  1.6100000000000D+00  0.0000000000000D+00  0.0000000000000D+00
163  1.6200000000000D+00  0.0000000000000D+00  0.0000000000000D+00
164  1.6300000000000D+00  0.0000000000000D+00  0.0000000000000D+00
165  1.6400000000000D+00  0.0000000000000D+00  0.0000000000000D+00
166  1.6500000000000D+00  0.0000000000000D+00  0.0000000000000D+00
167  1.6600000000000D+00  0.0000000000000D+00  0.0000000000000D+00
168  1.6700000000000D+00  0.0000000000000D+00  0.0000000000000D+00
169  1.6800000000000D+00  0.0000000000000D+00  0.0000000000000D+00
170  1.6900000000000D+00  0.0000000000000D+00  0.0000000000000D+00
171  1.7000000000000D+00  0.0000000000000D+00  0.0000000000000D+00
172  1.7100000000000D+00  0.0000000000000D+00  0.0000000000000D+00
173  1.7200000000000D+00  0.0000000000000D+00  0.0000000000000D+00
174  1.7300000000000D+00  0.0000000000000D+00  0.0000000000000D+00
175  1.7400000000000D+00  0.0000000000000D+00  0.0000000000000D+00
176  1.7500000000000D+00  0.0000000000000D+00  0.0000000000000D+00
177  1.7600000000000D+00  0.0000000000000D+00  0.0000000000000D+00
178  1.7700000000000D+00  0.0000000000000D+00  0.0000000000000D+00
179  1.7800000000000D+00  0.0000000000000D+00  0.0000000000000D+00
180  1.7900000000000D+00  0.0000000000000D+00  0.0000000000000D+00
181  1.8000000000000D+00  0.0000000000000D+00  0.0000000000000D+00
182  1.8100000000000D+00  0.0000000000000D+00  0.0000000000000D+00
183  1.8200000000000D+00  0.0000000000000D+00  0.0000000000000D+00
184  1.8300000000000D+00  0.0000000000000D+00  0.0000000000000D+00
185  1.8400000000000D+00  0.0000000000000D+00  0.0000000000000D+00
186  1.8500000000000D+00  0.0000000000000D+00  0.0000000000000D+00
187  1.8600000000000D+00  0.0000000000000D+00  0.0000000000000D+00
188  1.8700000000000D+00  0.0000000000000D+00  0.0000000000000D+00
189  1.8800000000000D+00  0.0000000000000D+00  0.0000000000000D+00
190  1.8900000000000D+00  0.0000000000000D+00  0.0000000000000D+00
191  1.9000000000000D+00  0.0000000000000D+00  0.0000000000000D+00
192  1.9100000000000D+00  0.0000000000000D+00  0.0000000000000D+00
193  1.9200000000000D+00  0.0000000000000D+00  0.0000000000000D+00
194  1.9300000000000D+00  0.0000000000000D+00  0.0000000000000D+00
195  1.9400000000000D+00  0.0000000000000D+00  0.0000000000000D+00
196  1.9500000000000D+00  0.0000000000000D+00  0.0000000000000D+00
197  1.9600000000000D+00  0.0000000000000D+00  0.0000000000000D+00
198  1.9700000000000D+00  0.0000000000000D+00  0.0000000000000D+00
199  1.9800000000000D+00  0.0000000000000D+00  0.0000000000000D+00
200  1.9900000000000D+00  0.0000000000000D+00  0.0000000000000D+00
201  2.0000000000000D+00  0.0000000000000D+00  0.0000000000000D+00
202  2.0100000000000D+00  0.0000000000000D+00  0.0000000000000D+00
203  2.0200000000000D+00  0.0000000000000D+00  0.0000000000000D+00
204  2.0300000000000D+00  0.0000000000000D+00  0.0000000000000D+00
205  2.0400000000000D+00  0.0000000000000D+00  0.0000000000000D+00
206  2.0500000000000D+00  0.0000000000000D+00  0.0000000000000D+00
207  2.0600000000000D+00  0.0000000000000D+00  0.0000000000000D+00
208  2.0700000000000D+00  0.0000000000000D+00  0.0000000000000D+00
209  2.0800000000000D+00  0.0000000000000D+00  0.0000000000000D+00
210  2.0900000000000D+00  0.0000000000000D+00  0.0000000000000D+00
211  2.1000000000000D+00  0.0000000000000D+00  0.0000000000000D+00
212  2.1100000000000D+00  0.0000000000000D+00  0.0000000000000D+00
213  2.1200000000000D+00  0.0000000000000D+00  0.0000000000000D+00
214  2.1300000000000D+00  0.0000000000000D+00  0.0000000000000D+00
215  2.1400000000000D+00  0.0000000000000D+00  0.0000000000000D+00
216  2.1500000000000D+00  0.0000000000000D+00  0.0000000000000D+00
217  2.1600000000000D+00  0.0000000000000D+00  0.0000000000000D+00
218  2.1700000000000D+00  0.0000000000000D+00  0.0000000000000D+00
219  2.1800000000000D+00  0.0000000000000D+00  0.0000000000000D+00
220  2.1900000000000D+00  0.0000000000000D+00  0.0000000000000D+00
221  2.2000000000000D+00  0.0000000000000D+00  0.0000000000000D+00
222  2.2100000000000D+00  0.0000000000000D+00  0.0000000000000D+00
223  2.2200000000000D+00  0.0000000000000D+00  0.0000000000000D+00
224  2.2300000000000D+00  0.0000000000000D+00  0.0000000000000D+00
225  2.2400000000000D+00  0.0000000000000D+00  0.0000000000000D+00
226  2.2500000000000D+00  0.0000000000000D+00  0.0000000000000D+00
227  2.2600000000000D+00  0.0000000000000D+00  0.0000000000000D+00
228  2.2700000000000D+00  0.0000000000000D+00  0.0000000000000D+00
229  2.2800000000000D+00  0.0000000000000D+00  0.0000000000000D+00
230  2.2900000000000D+00  0.0000000000000D+00  0.0000000000000D+00
231  2.3000000000000D+00  0.0000000000000D+00  0.0000000000000D+00
232  2.3100000000000D+00  0.0000000000000D+00  0.0000000000000D+00
233  2.3200000000000D+00  0.0000000000000D+00  0.0000000000000D+00
234  2.3300000000000D+00  0.0000000000000D+00  0.0000000000000D+00
235  2.3400000000000D+00  0.0000000000000D+00  0.0000000000000D+00
236  2.3500000000000D+00  0.0000000000000D+00  0.0000000000000D+00
237  2.3600000000000D+00  0.0000000000000D+00  0.0000000000000D+00
238  2.3700000000000D+00  0.0000000000000D+00  0.0000000000000D+00
239  2.3800000000000D+00  0.0000000000000D+00  0.0000000000000D+00
240  2.3900000000000D+00  0.0000000000000D+00  0.0000000000000D+00
241  2.4000000000000D+00  0.0000000000000D+00  0.0000000000000D+00
242  2.4100000000000D+00  0.0000000000000D+00  0.0000000000000D+00
243  2.4200000000000D+00  0.0000000000000D+00  0.0000000000000D+00
244  2.4300000000000D+00  0.0000000000000D+00  0.0000000000000D+00
245  2.4400000000000D+00  0.0000000000000D+00  0.0000000000000D+00
246  2.4500000000000D+00  0.0000000000000D+00  0.0000000000000D+00
247  2.4600000000000D+00  0.0000000000000D+00  0.0000000000000D+00
248  2.4700000000000D+00  0.0000000000000D+00  0.0000000000000D+00
249  2.4800000000000D+00  0.0000000000000D+00  0.0000000000000D+00
250  2.4900000000000D+00  0.0000000000000D+00  0.0000000000000D+00
251  2.5000000000000D+00  0.0000000000000D+00  0.0000000000000D+00
252  2.5100000000000D+00  0.0000000000000D+00  0.0000000000000D+00
253  2.5200000000000D+00  0.0000000000000D+00  0.0000000000000D+00
254  2.5300000000000D+00  0.0000000000000D+00  0.0000000000000D+00
255  2.5400000000000D+00  0.0000000000000D+00  0.0000000000000D+00
256  2.5500000000000D+00  0.0000000000000D+00  0.0000000000000D+00
257  2.5600000000000D+00  0.0000000000000D+00  0.0000000000000D+00
258  2.5700000000000D+00  0.0000000000000D+00  0.0000000000000D+00
259  2.5800000000000D+00  0.0000000000000D+00  0.0000000000000D+00
260  2.5900000000000D+00  0.0000000000000D+00  0.0000000000000D+00
261  2.6000000000000D+00  0.0000000000000D+00  0.0000000000000D+00
262  2.6100000000000D+00  0.0000000000000D+00  0.0000000000000D+00
263  2.6200000000000D+00  0.0000000000000D+00  0.0000000000000D+00
264  2.6300000000000D+00  0.0000000000000D+00  0.0000000000000D+00
265  2.6400000000000D+00  0.0000000000000D+00  0.0000000000000D+00
266  2.6500000000000D+00  0.0000000000000D+00  0.0000000000000D+00
267  2.6600000000000D+00  0.0000000000000D+00  0.0000000000000D+00
268  2.6700000000000D+00  0.0000000000000D+00  0.0000000000000D+00
269  2.6800000000000D+00  0.0000000000000D+00  0.0000000000000D+00
270  2.6900000000000D+00  0.0000000000000D+00  0.0000000000000D+00
271  2.7000000000000D+00  0.0000000000000D+00  0.0000000000000D+00
272  2.7100000000000D+00  0.0000000000000D+00  0.0000000000000D+00
273  2.7200000000000D+00  0.0000000000000D+00  0.0000000000000D+00
274  2.7300000000000D+00  0.0000000000000D+00  0.0000000000000D+00
275  2.7400000000000D+00  0.0000000000000D+00  0.0000000000000D+00
276  2.7500000000000D+00  0.0000000000000D+00  0.0000000000000D+00
277  2.7600000000000D+00  0.0000000000000D+00  0.0000000000000D+00
278  2.7700000000000D+00  0.0000000000000D+00  0.0000000000000D+00
279  2.7800000000000D+00  0.0000000000000D+00  0.0000000000000D+00
280  2.7900000000000D+00  0.0000000000000D+00  0.0000000000000D+00
281  2.8000000000000D+00  0.0000000000000D+00  0.0000000000000D+00
282  2.8100000000000D+00  0.0000000000000D+00  0.0000000000000D+00
283  2.8200000000000D+00  0.0000000000000D+00  0.0000000000000D+00
284  2.8300000000000D+00  0.0000000000000D+00  0.0000000000000D+00
285  2.8400000000000D+00  0.0000000000000D+00  0.0000000000000D+00
286  2.8500000000000D+00  0.0000000000000D+00  0.0000000000000D+00
287  2.8600000000000D+00  0.0000000000000D+00  0.0000000000000D+00
288  2.8700000000000D+00  0.0000000000000D+00  0.0000000000000D+00
289  2.8800000000000D+00  0.0000000000000D+00  0.0000000000000D+00
290  2.8900000000000D+00  0.0000000000000D+00  0.0000000000000D+00
291  2.9000000000000D+00  0.0000000000000D+00  0.0000000000000D+00
292  2.9100000000000D+00  0.0000000000000D+00  0.0000000000000D+00
293  2.9200000000000D+00  0.0000000000000D+00  0.0000000000000D+00
294  2.9300000000000D+00  0.0000000000000D+00  0.0000000000000D+00
295  2.9400000000000D+00  0.0000000000000D+00  0.0000000000000D+00
296  2.9500000000000D+00  0.0000000000000D+00  0.0000000000000D+00
297  2.9600000000000D+00  0.0000000000000D+00  0.0000000000000D+00
298  2.9700000000000D+00  0.0000000000000D+00  0.0000000000000D+00
299  2.9800000000000D+00  0.0000000000000D+00  0.0000000000000D+00
300  2.9900000000000D+00  0.0000000000000D+00  0.0000000000000D+00
301  3.0000000000000D+00  0.0000000000000D+00  0.0000000000000D+00
302  3.0100000000000D+00  0.0000000000000D+00  0.0000000000000D+00
303  3.0200000000000D+00  0.0000000000000D+00  0.0000000000000D+00
304  3.0300000000000D+00  0.0000000000000D+00  0.0000000000000D+00
305  3.0400000000000D+00  0.0000000000000D+00  0.0000000000000D+00
306  3.0500000000000D+00  0.0000000000000D+00  0.0000000000000D+00
307  3.0600000000000D+00  0.0000000000000D+00  0.0000000000000D+00
308  3.0700000000000D+00  0.0000000000000D+00  0.0000000000000D+00
309  3.0800000000000D+00  0.0000000000000D+00  0.0000000000000D+00
310  3.0900000000000D+00  0.0000000000000D+00  0.0000000000000D+00
311  3.1000000000000D+00  0.0000000000000D+00  0.0000000000000D+00
312  3.1100000000000D+00  0.0000000000000D+00  0.0000000000000D+00
313  3.1200000000000D+00  0.0000000000000D+00  0.0000000000000D+00
314  3.1300000000000D+00  0.0000000000000D+00  0.0000000000000D+00
315  3.1400000000000D+00  0.0000000000000D+00  0.0000000000000D+00
316  3.1500000000000D+00  0.0000000000000D+00  0.0000000000000D+00
317  3.1600000000000D+00  0.0000000000000D+00  0.0000000000000D+00
318  3.1700000000000D+00  0.0000000000000D+00  0.0000000000000D+00
319  3.1800000000000D+00  0.0000000000000D+00  0.0000000000000D+00
320  3.1900000000000D+00  0.0000000000000D+00  0.0000000000000D+00
321  3.2000000000000D+00  0.0000000000000D+00  0.0000000000000D+00
322  3.2100000000000D+00  0.0000000000000D+00  0.0000000000000D+00
323  3.2200000000000D+00  0.0000000000000D+00  0.0000000000000D+00
324  3.2300000000000D+00  0.0000000000000D+00  0.0000000000000D+00
325  3.2400000000000D+00  0.0000000000000D+00  0.0000000000000D+00
326  3.2500000000000D+00  0.0000000000000D+00  0.0000000000000D+00
327  3.2600000000000D+00  0.0000000000000D+00  0.0000000000000D+00
328  3.2700000000000D+00  0.0000000000000D+00  0.0000000000000D+00
329  3.2800000000000D+00  0.0000000000000D+00  0.0000000000000D+00
330  3.2900000000000D+00  0.0000000000000D+00  0.0000000000000D+00
331  3.3000000000000D+00  0.0000000000000D+00  0.0000000000000D+00
332  3.3100000000000D+00  0.0000000000000D+00  0.0000000000000D+00
333  3.3200000000000D+00  0.0000000000000D+00  0.0000000000000D+00
334  3.3300000000000D+00  0.0000000000000D+00  0.0000000000000D+00
335  3.3400000000000D+00  0.0000000000000D+00  0.0000000000000D+00
336  3.3500000000000D+00  0.0000000000000D+00  0.0000000000000D+00
337  3.3600000000000D+00  0.0000000000000D+00  0.0000000000000D+00
338  3.3700000000000D+00  0.0000000000000D+00  0.0000000000000D+00
339  3.3800000000000D+00  0.0000000000000D+00  0.0000000000000D+00
340  3.3900000000000D+00  0.0000000000000D+00  0.0000000000000D+00
341  3.4000000000000D+00  0.0000000000000D+00  0.0000000000000D+00
342  3.4100000000000D+00  0.0000000000000D+00  0.0000000000000D+00
343  3.4200000000000D+00  0.0000000000000D+00  0.0000000000000D+00
344  3.4300000000000D+00  0.0000000000000D+00  0.0000000000000D+00
345  3.4400000000000D+00  0.0000000000000D+00  0.0000000000000D+00
346  3.4500000000000D+00  0.0000000000000D+00  0.0000000000000D+00
347  3.4600000000000D+00  0.0000000000000D+00  0.0000000000000D+00
348  3.4700000000000D+00  0.0000000000000D+00  0.0000000000000D+00
349  3.4800000000000D+00  0.0000000000000D+00  0.0000000000000D+00
350  3.4900000000000D+00  0.0000000000000D+00  0.0000000000000D+00
351  3.5000000000000D+00  0.0000000000000D+00  0.0000000000000D+00
352  3.5100000000000D+00  0.0000000000000D+00  0.0000000000000D+00
353  3.5200000000000D+00  0.0000000000000D+00  0.0000000000000D+00
354  3.5300000000000D+00  0.0000000000000D+00  0.0000000000000D+00
355  3.5400000000000D+00  0.0000000000000D+00  0.0000000000000D+00
356  3.5500000000000D+00  0.0000000000000D+00  0.0000000000000D+00
357  3.5600000000000D+00  0.0000000000000D+00  0.0000000000000D+00
358  3.5700000000000D+00  0.0000000000000D+00  0.0000000000000D+00
359  3.5800000000000D+00  0.0000000000000D+00  0.0000000000000D+00
360  3.5900000000000D+00  0.0000000000000D+00  0.0000000000000D+00
361  3.6000000000000D+00  0.0000000000000D+00  0.0000000000000D+00
362  3.6100000000000D+00  0.0000000000000D+00  0.0000000000000D+00
363  3.6200000000000D+00  0.0000000000000D+00  0.0000000000000D+00
364  3.6300000000000D+00  0.0000000000000D+00  0.0000000000000D+00
365  3.6400000000000D+00  0.0000000000000D+00  0.0000000000000D+00
366  3.6500000000000D+00  0.0000000000000D+00  0.0000000000000D+00
367  3.6600000000000D+00  0.0000000000000D+00  0.0000000000000D+00
368  3.6700000000000D+00  0.0000000000000D+00  0.0000000000000D+00
369  3.6800000000000D+00  0.0000000000000D+00  0.0000000000000D+00
370  3.6900000000000D+00  0.0000000000000D+00  0.0000000000000D+00
371  3.7000000000000D+00  0.0000000000000D+00  0.0000000000000D+00
372  3.7100000000000D+00  0.0000000000000D+00  0.0000000000000D+00
373  3.7200000000000D+00  0.0000000000000D+00  0.0000000000000D+00
374  3.7300000000000D+00  0.0000000000000D+00  0.0000000000000D+00
375  3.7400000000000D+00  0.0000000000000D+00  0.0000000000000D+00
376  3.7500000000000D+00  0.0000000000000D+00  0.0000000000000D+00
377  3.7600000000000D+00  0.0000000000000D+00  0.0000000000000D+00
378  3.7700000000000D+00  0.0000000000000D+00  0.0000000000000D+00
379  3.7800000000000D+00  0.0000000000000D+00  0.0000000000000D+00
380  3.7900000000000D+00  0.0000000000000D+00  0.0000000000000D+00
381  3.8000000000000D+00  0.0000000000000D+00  0.0000000000000D+00
382  3.8100000000000D+00  0.0000000000000D+00  0.0000000000000D+00
383  3.8200000000000D+00  0.0000000000000D+00  0.0000000000000D+00
384  3.8300000000000D+00  0.0000000000000D+00  0.0000000000000D+00
385  3.8400000000000D+00  0.0000000000000D+00  0.0000000000000D+00
386  3.8500000000000D+00  0.0000000000000D+00  0.0000000000000D+00
387  3.8600000000000D+00  0.0000000000000D+00  0.0000000000000D+00
388  3.8700000000000D+00  0.0000000000000D+00  0.0000000000000D+00
389  3.8800000000000D+00  0.0000000000000D+00  0.0000000000000D+00
390  3.8900000000000D+00  0.0000000000000D+00  0.0000000000000D+00
391  3.9000000000000D+00  0.0000000000000D+00  0.0000000000000D+00
392  3.9100000000000D+00  0.0000000000000D+00  0.0000000000000D+00
393  3.9200000000000D+00  0.0000000000000D+00  0.0000000000000D+00
394  3.9300000000000D+00  0.0000000000000D+00  0.0000000000000D+00
395  3.9400000000000D+00  0.0000000000000D+00  0.0000000000000D+00
396  3.9500000000000D+00  0.0000000000000D+00  0.0000000000000D+00
397  3.9600000000000D+00  0.0000000000000D+00  0.0000000000000D+00
398  3.9700000000000D+00  0.0000000000000D+00  0.0000000000000D+00
399  3.9800000000000D+00  0.0000000000000D+00  0.0000000000000D+00
400  3.9900000000000D+00  0.0000000000000D+00  0.0000000000000D+00
401  4.0000000000000D+00  0.0000000000000D+00  0.0000000000000D+00
402  4.0100000000000D+00  0.0000000000000D+00  0.0000000000000D+00
403  4.0200000000000D+00  0.0000000000000D+00  0.0000000000000D+00
404  4.0300000000000D+00  0.0000000000000D+00  0.0000000000000D+00
405  4.0400000000000D+00  0.0000000000000D+00  0.0000000000000D+00
406  4.0500000000000D+00  0.0000000000000D+00  0.0000000000000D+00
407  4.0600000000000D+00  0.0000000000000D+00  0.0000000000000D+00
408  4.0700000000000D+00  0.0000000000000D+00  0.0000000000000D+00
409  4.0800000000000D+00  0.0000000000000D+00  0.0000000000000D+00
410  4.0900000000000D+00  0.0000000000000D+00  0.0000000000000D+00
411  4.1000000000000D+00  0.0000000000000D+00  0.0000000000000D+00
412  4.1100000000000D+00  0.0000000000000D+00  0.0000000000000D+00
413  4.1200000000000D+00  0.0000000000000D+00  0.0000000000000D+00
414  4.1300000000000D+00  0.0000000000000D+00  0.0000000000000D+00
415  4.1400000000000D+00  0.0000000000000D+00  0.0000000000000D+00
416  4.1500000000000D+00  0.0000000000000D+00  0.0000000000000D+00
417  4.1600000000000D+00  0.0000000000000D+00  0.0000000000000D+00
418  4.1700000000000D+00  0.0000000000000D+00  0.0000000000000D+00
419  4.1800000000000D+00  0.0000000000000D+00  0.0000000000000D+00
420  4.1900000000000D+00  0.0000000000000D+00  0.0000000000000D+00
421  4.2000000000000D+00  0.0000000000000D+00  0.0000000000000D+00
422  4.2100000000000D+00  0.0000000000000D+00  0.0000000000000D+00
423  4.2200000000000D+00  0.0000000000000D+00  0.0000000000000D+00
424  4.2300000000000D+00  0.0000000000000D+00  0.0000000000000D+00
425  4.2400000000000D+00  0.0000000000000D+00  0.0000000000000D+00
426  4.2500000000000D+00  0.0000000000000D+00  0.0000000000000D+00
427  4.2600000000000D+00  0.0000000000000D+00  0.0000000000000D+00
428  4.2700000000000D+00  0.0000000000000D+00  0.0000000000000D+00
429  4.2800000000000D+00  0.0000000000000D+00  0.0000000000000D+00
430  4.2900000000000D+00  0.0000000000000D+00  0.0000000000000D+00
431  4.3000000000000D+00  0.0000000000000D+00  0.0000000000000D+00
432  4.3100000000000D+00  0.0000000000000D+00  0.0000000000000D+00
433  4.3200000000000D+00  0.0000000000000D+00  0.0000000000000D+00
434  4.3300000000000D+00  0.0000000000000D+00  0.0000000000000D+00
435  4.3400000000000D+00  0.0000000000000D+00  0.0000000000000D+00
436  4.3500000000000D+00  0.0000000000000D+00  0.0000000000000D+00
437  4.3600000000000D+00  0.0000000000000D+00  0.0000000000000D+00
438  4.3700000000000D+00  0.0000000000000D+00  0.0000000000000D+00
439  4.3800000000000D+00  0.0000000000000D+00  0.0000000000000D+00
440  4.3900000000000D+00  0.0000000000000D+00  0.0000000000000D+00
441  4.4000000000000D+00  0.0000000000000D+00  0.0000000000000D+00
442  4.4100000000000D+00  0.0000000000000D+00  0.0000000000000D+00
443  4.4200000000000D+00  0.0000000000000D+00  0.0000000000000D+00