Pb    ONCVPSP-3.3.0  r_core=   2.42823   2.42823   2.10438
82.0000     14.0000      180430    zatom,zion,pspd
8 -116133   2     4   600     0    pspcod,pspxc,lmax,lloc,mmax,r2well
5.99000000  6.00000000  0.00000000    rchrg fchrg qchrg
2     4     3     0    nproj
3     1           extension_switch
4     3     0    nprojso
0                         1.2021557542765D+00  6.2533241971593D+00
1  0.0000000000000D+00 -5.6480653487512D-12  2.2716412084733D-12
2  1.0000000000000D-02  2.2090279988951D-02  5.2715709857361D-03
3  2.0000000000000D-02  4.4108599065613D-02  1.0578305913059D-02
4  3.0000000000000D-02  6.5983222454057D-02  1.5955255325853D-02
5  4.0000000000000D-02  8.7642867026602D-02  2.1437243259678D-02
6  5.0000000000000D-02  1.0901692556820D-01  2.7058754704734D-02
7  6.0000000000000D-02  1.3003568917305D-01  3.2853823927778D-02
8  7.0000000000000D-02  1.5063056715760D-01  3.8855923936664D-02
9  8.0000000000000D-02  1.7073430387938D-01  4.5097857368877D-02
10  9.0000000000000D-02  1.9028119185873D-01  5.1611649082606D-02
11  1.0000000000000D-01  2.0920728060835D-01  5.8428440725473D-02
12  1.1000000000000D-01  2.2745058058585D-01  6.5578387552079D-02
13  1.2000000000000D-01  2.4495126169550D-01  7.3090557756969D-02
14  1.3000000000000D-01  2.6165184577808D-01  8.0992834584524D-02
15  1.4000000000000D-01  2.7749739254148D-01  8.9311821471648D-02
16  1.5000000000000D-01  2.9243567840018D-01  9.8072750472870D-02
17  1.6000000000000D-01  3.0641736770818D-01  1.0729939421076D-01
18  1.7000000000000D-01  3.1939617588772D-01  1.1701398158721D-01
19  1.8000000000000D-01  3.3132902397561D-01  1.2723711748336D-01
20  1.9000000000000D-01  3.4217618412896D-01  1.3798770666739D-01
21  2.0000000000000D-01  3.5190141565398D-01  1.4928288212079D-01
22  2.1000000000000D-01  3.6047209114425D-01  1.6113793798391D-01
23  2.2000000000000D-01  3.6785931233870D-01  1.7356626731204D-01
24  2.3000000000000D-01  3.7403801533474D-01  1.8657930482248D-01
25  2.4000000000000D-01  3.7898706481814D-01  2.0018647480244D-01
26  2.5000000000000D-01  3.8268933699820D-01  2.1439514433594D-01
27  2.6000000000000D-01  3.8513179096536D-01  2.2921058199619D-01
28  2.7000000000000D-01  3.8630552821700D-01  2.4463592213753D-01
29  2.8000000000000D-01  3.8620584012783D-01  2.6067213490828D-01
30  2.9000000000000D-01  3.8483224317145D-01  2.7731800209269D-01
31  3.0000000000000D-01  3.8218850173196D-01  2.9457009887657D-01
32  3.1000000000000D-01  3.7828263837645D-01  3.1242278161742D-01
33  3.2000000000000D-01  3.7312693149237D-01  3.3086818168527D-01
34  3.3000000000000D-01  3.6673790022748D-01  3.4989620542625D-01
35  3.4000000000000D-01  3.5913627670417D-01  3.6949454028560D-01
36  3.5000000000000D-01  3.5034696551450D-01  3.8964866711199D-01
37  3.6000000000000D-01  3.4039899053740D-01  4.1034187864928D-01
38  3.7000000000000D-01  3.2932542915455D-01  4.3155530420652D-01
39  3.8000000000000D-01  3.1716333397714D-01  4.5326794048095D-01
40  3.9000000000000D-01  3.0395364223111D-01  4.7545668849285D-01
41  4.0000000000000D-01  2.8974107298410D-01  4.9809639657515D-01
42  4.1000000000000D-01  2.7457401243309D-01  5.2115990934437D-01
43  4.2000000000000D-01  2.5850438750663D-01  5.4461812256340D-01
44  4.3000000000000D-01  2.4158752807129D-01  5.6844004379053D-01
45  4.4000000000000D-01  2.2388201806617D-01  5.9259285869289D-01
46  4.5000000000000D-01  2.0544953592389D-01  6.1704200288645D-01
47  4.6000000000000D-01  1.8635468467032D-01  6.4175123914900D-01
48  4.7000000000000D-01  1.6666481212797D-01  6.6668273983673D-01
49  4.8000000000000D-01  1.4644982168082D-01  6.9179717431942D-01
50  4.9000000000000D-01  1.2578197408927D-01  7.1705380123441D-01
51  5.0000000000000D-01  1.0473568087468D-01  7.4241056534423D-01
52  5.1000000000000D-01  8.3387289822214D-02  7.6782419876864D-01
53  5.2000000000000D-01  6.1814863178688D-02  7.9325032634760D-01
54  5.3000000000000D-01  4.0097949149375D-02  8.1864357487789D-01
55  5.4000000000000D-01  1.8317347322700D-02  8.4395768595346D-01
56  5.5000000000000D-01 -3.4451313239924D-03  8.6914563212669D-01
57  5.6000000000000D-01 -2.5106909162130D-02  8.9415973609586D-01
58  5.7000000000000D-01 -4.6584890697065D-02  9.1895179261319D-01
59  5.8000000000000D-01 -6.7795714685730D-02  9.4347319279687D-01
60  5.9000000000000D-01 -8.8656008854960D-02  9.6767505052093D-01
61  6.0000000000000D-01 -1.0908264647365D-01  9.9150833054786D-01
62  6.1000000000000D-01 -1.2899300401893D-01  1.0149239780605D+00
63  6.2000000000000D-01 -1.4830521916594D-01  1.0378730492428D+00
64  6.3000000000000D-01 -1.6693844832184D-01  1.0603068425522D+00
65  6.4000000000000D-01 -1.8481312291889D-01  1.0821770303213D+00
66  6.5000000000000D-01 -2.0185120367686D-01  1.1034357903227D+00
67  6.6000000000000D-01 -2.1797643204402D-01  1.1240359369256D+00
68  6.7000000000000D-01 -2.3311457802628D-01  1.1439310514727D+00
69  6.8000000000000D-01 -2.4719368361770D-01  1.1630756115033D+00
70  6.9000000000000D-01 -2.6014430105130D-01  1.1814251184485D+00
71  7.0000000000000D-01 -2.7189972509729D-01  1.1989362234254D+00
72  7.1000000000000D-01 -2.8239621864703D-01  1.2155668507606D+00
73  7.2000000000000D-01 -2.9157323083405D-01  1.2312763188727D+00
74  7.3000000000000D-01 -2.9937360695987D-01  1.2460254581540D+00
75  7.4000000000000D-01 -3.0574378951055D-01  1.2597767254909D+00
76  7.5000000000000D-01 -3.1063400957099D-01  1.2724943150734D+00
77  7.6000000000000D-01 -3.1399846796771D-01  1.2841442651497D+00
78  7.7000000000000D-01 -3.1579550549654D-01  1.2946945603937D+00
79  7.8000000000000D-01 -3.1598776162017D-01  1.3041152295589D+00
80  7.9000000000000D-01 -3.1454232105130D-01  1.3123784381081D+00
81  8.0000000000000D-01 -3.1143084766977D-01  1.3194585755182D+00
82  8.1000000000000D-01 -3.0662970525779D-01  1.3253323369730D+00
83  8.2000000000000D-01 -3.0012006457407D-01  1.3299787991725D+00
84  8.3000000000000D-01 -2.9188799632743D-01  1.3333794900019D+00
85  8.4000000000000D-01 -2.8192454965155D-01  1.3355184518200D+00
86  8.5000000000000D-01 -2.7022581572536D-01  1.3363822981449D+00
87  8.6000000000000D-01 -2.5679297622857D-01  1.3359602635329D+00
88  8.7000000000000D-01 -2.4163233636793D-01  1.3342442464649D+00
89  8.8000000000000D-01 -2.2475534225734D-01  1.3312288450766D+00
90  8.9000000000000D-01 -2.0617858248418D-01  1.3269113855874D+00
91  9.0000000000000D-01 -1.8592377374374D-01  1.3212919433052D+00
92  9.1000000000000D-01 -1.6401773047522D-01  1.3143733561074D+00
93  9.2000000000000D-01 -1.4049231848387D-01  1.3061612303190D+00
94  9.3000000000000D-01 -1.1538439258668D-01  1.2966639389321D+00
95  9.4000000000000D-01 -8.8735718371590D-02  1.2858926121377D+00
96  9.5000000000000D-01 -6.0592878213180D-02  1.2738611201577D+00
97  9.6000000000000D-01 -3.1007161741111D-02  1.2605860483977D+00
98  9.7000000000000D-01 -3.4441010274922D-05  1.2460866649564D+00
99  9.8000000000000D-01  3.2264969325530D-02  1.2303848805597D+00
100  9.9000000000000D-01  6.5826466482204D-02  1.2135052010046D+00
101  1.0000000000000D+00  1.0058132825118D-01  1.1954746722289D+00
102  1.0100000000000D+00  1.3645689548671D-01  1.1763228181400D+00
103  1.0200000000000D+00  1.7337676786859D-01  1.1560815713655D+00
104  1.0300000000000D+00  2.1126101238716D-01  1.1347851971077D+00
105  1.0400000000000D+00  2.5002638395012D-01  1.1124702103089D+00
106  1.0500000000000D+00  2.8958655746528D-01  1.0891752863563D+00
107  1.0600000000000D+00  3.2985237071103D-01  1.0649411655763D+00
108  1.0700000000000D+00  3.7073207726503D-01  1.0398105517901D+00
109  1.0800000000000D+00  4.1213160872094D-01  1.0138280052223D+00
110  1.0900000000000D+00  4.5395484538854D-01  9.8703983007361D-01
111  1.1000000000000D+00  4.9610389463597D-01  9.5949395708722D-01
112  1.1100000000000D+00  5.3847937600461D-01  9.3123982145573D-01
113  1.1200000000000D+00  5.8098071219531D-01  9.0232823643200D-01
114  1.1300000000000D+00  6.2350642499985D-01  8.7281126302281D-01
115  1.1400000000000D+00  6.6595443522884D-01  8.4274207615855D-01
116  1.1500000000000D+00  7.0822236566885D-01  8.1217482774327D-01
117  1.1600000000000D+00  7.5020784608385D-01  7.8116450700256D-01
118  1.1700000000000D+00  7.9180881926276D-01  7.4976679855645D-01
119  1.1800000000000D+00  8.3292384710709D-01  7.1803793865312D-01
120  1.1900000000000D+00  8.7345241574643D-01  6.8603457000502D-01
121  1.2000000000000D+00  9.1329523866517D-01  6.5381359567710D-01
122  1.2100000000000D+00  9.5235455682768D-01  6.2143203247930D-01
123  1.2200000000000D+00  9.9053443479437D-01  5.8894686431805D-01
124  1.2300000000000D+00  1.0277410518246D+00  5.5641489596341D-01
125  1.2400000000000D+00  1.0638829869800D+00  5.2389260768782D-01
126  1.2500000000000D+00  1.0988714972624D+00  4.9143601122758D-01
127  1.2600000000000D+00  1.1326207878193D+00  4.5910050752009D-01
128  1.2700000000000D+00  1.1650482732975D+00  4.2694074665930D-01
129  1.2800000000000D+00  1.1960748294487D+00  3.9501049050329D-01
130  1.2900000000000D+00  1.2256250340905D+00  3.6336247837021D-01
131  1.3000000000000D+00  1.2536273966011D+00  3.3204829623580D-01
132  1.3100000000000D+00  1.2800145751540D+00  3.0111824983566D-01
133  1.3200000000000D+00  1.3047235808908D+00  2.7062124207923D-01
134  1.3300000000000D+00  1.3276959683503D+00  2.4060465514224D-01
135  1.3400000000000D+00  1.3488780114702D+00  2.1111423760247D-01
136  1.3500000000000D+00  1.3682208645005D+00  1.8219399697901D-01
137  1.3600000000000D+00  1.3856807073082D+00  1.5388609798147D-01
138  1.3700000000000D+00  1.4012188745067D+00  1.2623076679332D-01
139  1.3800000000000D+00  1.4148019679373D+00  9.9266201679767D-02
140  1.3900000000000D+00  1.4264019521611D+00  7.3028490157579D-02
141  1.4000000000000D+00  1.4359962324936D+00  4.7551533015995D-02
142  1.4100000000000D+00  1.4435677154004D+00  2.2866975364216D-02
143  1.4200000000000D+00  1.4491048509787D+00 -9.9585508164732D-04
144  1.4300000000000D+00  1.4526016573108D+00 -2.4010002284018D-02
145  1.4400000000000D+00  1.4540577267255D+00 -4.6150928653847D-02
146  1.4500000000000D+00  1.4534782137360D+00 -6.7396554109773D-02
147  1.4600000000000D+00  1.4508738048677D+00 -8.7727287411830D-02
148  1.4700000000000D+00  1.4462606703505D+00 -1.0712604965995D-01
149  1.4800000000000D+00  1.4396603978462D+00 -1.2557828992449D-01
150  1.4900000000000D+00  1.4310999085314D+00 -1.4307199304562D-01
151  1.5000000000000D+00  1.4206113556218D+00 -1.5959767953255D-01
152  1.5100000000000D+00  1.4082320059528D+00 -1.7514839772709D-01
153  1.5200000000000D+00  1.3940041047414D+00 -1.8971970817881D-01
154  1.5300000000000D+00  1.3779747242523D+00 -2.0330966044510D-01
155  1.5400000000000D+00  1.3601955967178D+00 -2.1591876236245D-01
156  1.5500000000000D+00  1.3407229321885D+00 -2.2754994198221D-01
157  1.5600000000000D+00  1.3196172219565D+00 -2.3820850235154D-01
158  1.5700000000000D+00  1.2969430281593D+00 -2.4790206929857D-01
159  1.5800000000000D+00  1.2727687604744D+00 -2.5664053253152D-01
160  1.5900000000000D+00  1.2471664404588D+00 -2.6443598018266D-01
161  1.6000000000000D+00  1.2202114546669D+00 -2.7130262721801D-01
162  1.6100000000000D+00  1.1919822970872D+00 -2.7725673783259D-01
163  1.6200000000000D+00  1.1625603021646D+00 -2.8231654232675D-01
164  1.6300000000000D+00  1.1320293690193D+00 -2.8650214861117D-01
165  1.6400000000000D+00  1.1004756781530D+00 -2.8983544885942D-01
166  1.6500000000000D+00  1.0679874013833D+00 -2.9234002151583D-01
167  1.6600000000000D+00  1.0346544062637D+00 -2.9404102917308D-01
168  1.6700000000000D+00  1.0005679558568D+00 -2.9496511258912D-01
169  1.6800000000000D+00  9.6582040507725D-01 -2.9514028134941D-01
170  1.6900000000000D+00  9.3050489457019D-01 -2.9459580149456D-01
171  1.7000000000000D+00  8.9471504329017D-01 -2.9336208060937D-01
172  1.7100000000000D+00  8.5854464083153D-01 -2.9147055073448D-01
173  1.7200000000000D+00  8.2208734059630D-01 -2.8895354958037D-01
174  1.7300000000000D+00  7.8543635493734D-01 -2.8584420044243D-01
175  1.7400000000000D+00  7.4868415323796D-01 -2.8217629126650D-01
176  1.7500000000000D+00  7.1192216417909D-01 -2.7798415330703D-01
177  1.7600000000000D+00  6.7524048295508D-01 -2.7330253977147D-01
178  1.7700000000000D+00  6.3872758486140D-01 -2.6816650495492D-01
179  1.7800000000000D+00  6.0247004571123D-01 -2.6261128416552D-01
180  1.7900000000000D+00  5.6655227074042D-01 -2.5667217503022D-01
181  1.8000000000000D+00  5.3105623210761D-01 -2.5038442036388D-01
182  1.8100000000000D+00  4.9606121681648D-01 -2.4378309326410D-01
183  1.8200000000000D+00  4.6164358494689D-01 -2.3690298452696D-01
184  1.8300000000000D+00  4.2787653996229D-01 -2.2977849305092D-01
185  1.8400000000000D+00  3.9482991099726D-01 -2.2244351931026D-01
186  1.8500000000000D+00  3.6256994855460D-01 -2.1493136247366D-01
187  1.8600000000000D+00  3.3115913380414D-01 -2.0727462133189D-01
188  1.8700000000000D+00  3.0065600225486D-01 -1.9950509939899D-01
189  1.8800000000000D+00  2.7111498260588D-01 -1.9165371455640D-01
190  1.8900000000000D+00  2.4258625053390D-01 -1.8375041325300D-01
191  1.9000000000000D+00  2.1511559915802D-01 -1.7582408996517D-01
192  1.9100000000000D+00  1.8874432468310D-01 -1.6790251147362D-01
193  1.9200000000000D+00  1.6350912981804D-01 -1.6001224698204D-01
194  1.9300000000000D+00  1.3944204289498D-01 -1.5217860341104D-01
195  1.9400000000000D+00  1.1657035481167D-01 -1.4442556673547D-01
196  1.9500000000000D+00  9.4916572653326D-02 -1.3677574902648D-01
197  1.9600000000000D+00  7.4498390450798D-02 -1.2925034145817D-01
198  1.9700000000000D+00  5.5328677633851D-02 -1.2186907357516D-01
199  1.9800000000000D+00  3.7415483510163D-02 -1.1465017827223D-01
200  1.9900000000000D+00  2.0762060033627D-02 -1.0761036344379D-01
201  2.0000000000000D+00  5.3668999283351D-03 -1.0076478925299D-01
202  2.0100000000000D+00 -8.7762076977319D-03 -9.4127051944936D-02
203  2.0200000000000D+00 -2.1678106130218D-02 -8.7709173550003D-02
204  2.0300000000000D+00 -3.3354184261582D-02 -8.1521597551781D-02
205  2.0400000000000D+00 -4.3824276658089D-02 -7.5573189879608D-02
206  2.0500000000000D+00 -5.3112534689791D-02 -6.9871250151968D-02
207  2.0600000000000D+00 -6.1247325839739D-02 -6.4421514975161D-02
208  2.0700000000000D+00 -6.8261038262912D-02 -5.9228193511975D-02
209  2.0800000000000D+00 -7.4189937466677D-02 -5.4293986653214D-02
210  2.0900000000000D+00 -7.9074015294962D-02 -4.9620108969261D-02
211  2.1000000000000D+00 -8.2957005211465D-02 -4.5206262280759D-02
212  2.1100000000000D+00 -8.5885777127058D-02 -4.1050805773922D-02
213  2.1200000000000D+00 -8.7909988913318D-02 -3.7150844037165D-02
214  2.1300000000000D+00 -8.9081661103957D-02 -3.3502348841107D-02
215  2.1400000000000D+00 -8.9454802995268D-02 -3.0100270876772D-02
216  2.1500000000000D+00 -8.9084752587005D-02 -2.6938742330632D-02
217  2.1600000000000D+00 -8.8028151642661D-02 -2.4011078483484D-02
218  2.1700000000000D+00 -8.6342691275006D-02 -2.1309856508600D-02
219  2.1800000000000D+00 -8.4086875306012D-02 -1.8826988071805D-02
220  2.1900000000000D+00 -8.1319703397670D-02 -1.6553816193421D-02
221  2.2000000000000D+00 -7.8100447175954D-02 -1.4481185282442D-02
222  2.2100000000000D+00 -7.4488381161011D-02 -1.2599525452462D-02
223  2.2200000000000D+00 -7.0542528750275D-02 -1.0898932774582D-02
224  2.2300000000000D+00 -6.6321410266627D-02 -9.3692493964139D-03
225  2.2400000000000D+00 -6.1882795205448D-02 -8.0001427867737D-03
226  2.2500000000000D+00 -5.7283458690420D-02 -6.7811840811494D-03
227  2.2600000000000D+00 -5.2578944551653D-02 -5.7019246615330D-03
228  2.2700000000000D+00 -4.7823335517854D-02 -4.7519707700855D-03
229  2.2800000000000D+00 -4.3069029862111D-02 -3.9210563828447D-03
230  2.2900000000000D+00 -3.8366528565644D-02 -3.1991128476535D-03
231  2.3000000000000D+00 -3.3764230780299D-02 -2.5763360870806D-03
232  2.3100000000000D+00 -2.9308239079455D-02 -2.0432508117067D-03
233  2.3200000000000D+00 -2.5042177518551D-02 -1.5907706096610D-03
234  2.3300000000000D+00 -2.1007019376578D-02 -1.2102550757591D-03
235  2.3400000000000D+00 -1.7240928054008D-02 -8.9356267215187D-04
236  2.3500000000000D+00 -1.3782221554772D-02 -6.3302740587427D-04
237  2.3600000000000D+00 -1.0658207335057D-02 -4.2175759084023D-04
238  2.3700000000000D+00 -7.8942030126732D-03 -2.5346480994829D-04
239  2.3800000000000D+00 -5.5012010892247D-03 -1.2342336544400D-04
240  2.3900000000000D+00 -3.5399407398170D-03 -2.4545892521673D-05
241  2.4000000000000D+00 -2.0485823150630D-03  4.8500434191385D-05
242  2.4100000000000D+00 -1.0534871835561D-03  1.0213899743099D-04
243  2.4200000000000D+00 -4.5508161916191D-04  1.2811649285515D-04
244  2.4300000000000D+00 -1.4877543233979D-04  1.2184343673224D-04
245  2.4400000000000D+00 -1.7467136252662D-05  8.1241975148571D-05
246  2.4500000000000D+00  9.1068521382357D-06  3.1509498667416D-05
247  2.4600000000000D+00 -2.7648584416383D-06 -5.7038230404727D-06
248  2.4700000000000D+00 -1.0315953637779D-05 -1.4622756395621D-05
249  2.4800000000000D+00 -7.0693221833136D-06 -8.2029922252439D-06
250  2.4900000000000D+00  2.6167885743005D-07  1.2846473674245D-06
251  2.5000000000000D+00  9.2849879133251D-07  3.2541435221378D-06
252  2.5100000000000D+00  6.8315940070916D-07  1.9385806212591D-06
253  2.5200000000000D+00  2.0748384696432D-07 -1.3910417069056D-07
254  2.5300000000000D+00  5.3262577903852D-07 -3.5709029095795D-07
255  2.5400000000000D+00  3.3420765072234D-07 -2.2406408389066D-07
256  2.5500000000000D+00  0.0000000000000D+00  0.0000000000000D+00
257  2.5600000000000D+00  0.0000000000000D+00  0.0000000000000D+00
258  2.5700000000000D+00  0.0000000000000D+00  0.0000000000000D+00
259  2.5800000000000D+00  0.0000000000000D+00  0.0000000000000D+00
260  2.5900000000000D+00  0.0000000000000D+00  0.0000000000000D+00
261  2.6000000000000D+00  0.0000000000000D+00  0.0000000000000D+00
262  2.6100000000000D+00  0.0000000000000D+00  0.0000000000000D+00
263  2.6200000000000D+00  0.0000000000000D+00  0.0000000000000D+00
264  2.6300000000000D+00  0.0000000000000D+00  0.0000000000000D+00
265  2.6400000000000D+00  0.0000000000000D+00  0.0000000000000D+00
266  2.6500000000000D+00  0.0000000000000D+00  0.0000000000000D+00
267  2.6600000000000D+00  0.0000000000000D+00  0.0000000000000D+00
268  2.6700000000000D+00  0.0000000000000D+00  0.0000000000000D+00
269  2.6800000000000D+00  0.0000000000000D+00  0.0000000000000D+00
270  2.6900000000000D+00  0.0000000000000D+00  0.0000000000000D+00
271  2.7000000000000D+00  0.0000000000000D+00  0.0000000000000D+00
272  2.7100000000000D+00  0.0000000000000D+00  0.0000000000000D+00
273  2.7200000000000D+00  0.0000000000000D+00  0.0000000000000D+00
274  2.7300000000000D+00  0.0000000000000D+00  0.0000000000000D+00
275  2.7400000000000D+00  0.0000000000000D+00  0.0000000000000D+00
276  2.7500000000000D+00  0.0000000000000D+00  0.0000000000000D+00
277  2.7600000000000D+00  0.0000000000000D+00  0.0000000000000D+00
278  2.7700000000000D+00  0.0000000000000D+00  0.0000000000000D+00
279  2.7800000000000D+00  0.0000000000000D+00  0.0000000000000D+00
280  2.7900000000000D+00  0.0000000000000D+00  0.0000000000000D+00
281  2.8000000000000D+00  0.0000000000000D+00  0.0000000000000D+00
282  2.8100000000000D+00  0.0000000000000D+00  0.0000000000000D+00
283  2.8200000000000D+00  0.0000000000000D+00  0.0000000000000D+00
284  2.8300000000000D+00  0.0000000000000D+00  0.0000000000000D+00
285  2.8400000000000D+00  0.0000000000000D+00  0.0000000000000D+00
286  2.8500000000000D+00  0.0000000000000D+00  0.0000000000000D+00
287  2.8600000000000D+00  0.0000000000000D+00  0.0000000000000D+00
288  2.8700000000000D+00  0.0000000000000D+00  0.0000000000000D+00
289  2.8800000000000D+00  0.0000000000000D+00  0.0000000000000D+00
290  2.8900000000000D+00  0.0000000000000D+00  0.0000000000000D+00
291  2.9000000000000D+00  0.0000000000000D+00  0.0000000000000D+00
292  2.9100000000000D+00  0.0000000000000D+00  0.0000000000000D+00
293  2.9200000000000D+00  0.0000000000000D+00  0.0000000000000D+00
294  2.9300000000000D+00  0.0000000000000D+00  0.0000000000000D+00
295  2.9400000000000D+00  0.0000000000000D+00  0.0000000000000D+00
296  2.9500000000000D+00  0.0000000000000D+00  0.0000000000000D+00
297  2.9600000000000D+00  0.0000000000000D+00  0.0000000000000D+00
298  2.9700000000000D+00  0.0000000000000D+00  0.0000000000000D+00
299  2.9800000000000D+00  0.0000000000000D+00  0.0000000000000D+00
300  2.9900000000000D+00  0.0000000000000D+00  0.0000000000000D+00
301  3.0000000000000D+00  0.0000000000000D+00  0.0000000000000D+00
302  3.0100000000000D+00  0.0000000000000D+00  0.0000000000000D+00
303  3.0200000000000D+00  0.0000000000000D+00  0.0000000000000D+00
304  3.0300000000000D+00  0.0000000000000D+00  0.0000000000000D+00
305  3.0400000000000D+00  0.0000000000000D+00  0.0000000000000D+00
306  3.0500000000000D+00  0.0000000000000D+00  0.0000000000000D+00
307  3.0600000000000D+00  0.0000000000000D+00  0.0000000000000D+00
308  3.0700000000000D+00  0.0000000000000D+00  0.0000000000000D+00
309  3.0800000000000D+00  0.0000000000000D+00  0.0000000000000D+00
310  3.0900000000000D+00  0.0000000000000D+00  0.0000000000000D+00
311  3.1000000000000D+00  0.0000000000000D+00  0.0000000000000D+00
312  3.1100000000000D+00  0.0000000000000D+00  0.0000000000000D+00
313  3.1200000000000D+00  0.0000000000000D+00  0.0000000000000D+00
314  3.1300000000000D+00  0.0000000000000D+00  0.0000000000000D+00
315  3.1400000000000D+00  0.0000000000000D+00  0.0000000000000D+00
316  3.1500000000000D+00  0.0000000000000D+00  0.0000000000000D+00
317  3.1600000000000D+00  0.0000000000000D+00  0.0000000000000D+00
318  3.1700000000000D+00  0.0000000000000D+00  0.0000000000000D+00
319  3.1800000000000D+00  0.0000000000000D+00  0.0000000000000D+00
320  3.1900000000000D+00  0.0000000000000D+00  0.0000000000000D+00
321  3.2000000000000D+00  0.0000000000000D+00  0.0000000000000D+00
322  3.2100000000000D+00  0.0000000000000D+00  0.0000000000000D+00
323  3.2200000000000D+00  0.0000000000000D+00  0.0000000000000D+00
324  3.2300000000000D+00  0.0000000000000D+00  0.0000000000000D+00
325  3.2400000000000D+00  0.0000000000000D+00  0.0000000000000D+00
326  3.2500000000000D+00  0.0000000000000D+00  0.0000000000000D+00
327  3.2600000000000D+00  0.0000000000000D+00  0.0000000000000D+00
328  3.2700000000000D+00  0.0000000000000D+00  0.0000000000000D+00
329  3.2800000000000D+00  0.0000000000000D+00  0.0000000000000D+00
330  3.2900000000000D+00  0.0000000000000D+00  0.0000000000000D+00
331  3.3000000000000D+00  0.0000000000000D+00  0.0000000000000D+00
332  3.3100000000000D+00  0.0000000000000D+00  0.0000000000000D+00
333  3.3200000000000D+00  0.0000000000000D+00  0.0000000000000D+00
334  3.3300000000000D+00  0.0000000000000D+00  0.0000000000000D+00
335  3.3400000000000D+00  0.0000000000000D+00  0.0000000000000D+00
336  3.3500000000000D+00  0.0000000000000D+00  0.0000000000000D+00
337  3.3600000000000D+00  0.0000000000000D+00  0.0000000000000D+00
338  3.3700000000000D+00  0.0000000000000D+00  0.0000000000000D+00
339  3.3800000000000D+00  0.0000000000000D+00  0.0000000000000D+00
340  3.3900000000000D+00  0.0000000000000D+00  0.0000000000000D+00
341  3.4000000000000D+00  0.0000000000000D+00  0.0000000000000D+00
342  3.4100000000000D+00  0.0000000000000D+00  0.0000000000000D+00
343  3.4200000000000D+00  0.0000000000000D+00  0.0000000000000D+00
344  3.4300000000000D+00  0.0000000000000D+00  0.0000000000000D+00
345  3.4400000000000D+00  0.0000000000000D+00  0.0000000000000D+00
346  3.4500000000000D+00  0.0000000000000D+00  0.0000000000000D+00
347  3.4600000000000D+00  0.0000000000000D+00  0.0000000000000D+00
348  3.4700000000000D+00  0.0000000000000D+00  0.0000000000000D+00
349  3.4800000000000D+00  0.0000000000000D+00  0.0000000000000D+00
350  3.4900000000000D+00  0.0000000000000D+00  0.0000000000000D+00
351  3.5000000000000D+00  0.0000000000000D+00  0.0000000000000D+00
352  3.5100000000000D+00  0.0000000000000D+00  0.0000000000000D+00
353  3.5200000000000D+00  0.0000000000000D+00  0.0000000000000D+00
354  3.5300000000000D+00  0.0000000000000D+00  0.0000000000000D+00
355  3.5400000000000D+00  0.0000000000000D+00  0.0000000000000D+00
356  3.5500000000000D+00  0.0000000000000D+00  0.0000000000000D+00
357  3.5600000000000D+00  0.0000000000000D+00  0.0000000000000D+00
358  3.5700000000000D+00  0.0000000000000D+00  0.0000000000000D+00
359  3.5800000000000D+00  0.0000000000000D+00  0.0000000000000D+00
360  3.5900000000000D+00  0.0000000000000D+00  0.0000000000000D+00
361  3.6000000000000D+00  0.0000000000000D+00  0.0000000000000D+00
362  3.6100000000000D+00  0.0000000000000D+00  0.0000000000000D+00
363  3.6200000000000D+00  0.0000000000000D+00  0.0000000000000D+00
364  3.6300000000000D+00  0.0000000000000D+00  0.0000000000000D+00
365  3.6400000000000D+00  0.0000000000000D+00  0.0000000000000D+00
366  3.6500000000000D+00  0.0000000000000D+00  0.0000000000000D+00
367  3.6600000000000D+00  0.0000000000000D+00  0.0000000000000D+00
368  3.6700000000000D+00  0.0000000000000D+00  0.0000000000000D+00
369  3.6800000000000D+00  0.0000000000000D+00  0.0000000000000D+00
370  3.6900000000000D+00  0.0000000000000D+00  0.0000000000000D+00
371  3.7000000000000D+00  0.0000000000000D+00  0.0000000000000D+00
372  3.7100000000000D+00  0.0000000000000D+00  0.0000000000000D+00
373  3.7200000000000D+00  0.0000000000000D+00  0.0000000000000D+00
374  3.7300000000000D+00  0.0000000000000D+00  0.0000000000000D+00
375  3.7400000000000D+00  0.0000000000000D+00  0.0000000000000D+00
376  3.7500000000000D+00  0.0000000000000D+00  0.0000000000000D+00
377  3.7600000000000D+00  0.0000000000000D+00  0.0000000000000D+00
378  3.7700000000000D+00  0.0000000000000D+00  0.0000000000000D+00
379  3.7800000000000D+00  0.0000000000000D+00  0.0000000000000D+00
380  3.7900000000000D+00  0.0000000000000D+00  0.0000000000000D+00
381  3.8000000000000D+00  0.0000000000000D+00  0.0000000000000D+00
382  3.8100000000000D+00  0.0000000000000D+00  0.0000000000000D+00
383  3.8200000000000D+00  0.0000000000000D+00  0.0000000000000D+00
384  3.8300000000000D+00  0.0000000000000D+00  0.0000000000000D+00
385  3.8400000000000D+00  0.0000000000000D+00  0.0000000000000D+00
386  3.8500000000000D+00  0.0000000000000D+00  0.0000000000000D+00
387  3.8600000000000D+00  0.0000000000000D+00  0.0000000000000D+00
388  3.8700000000000D+00  0.0000000000000D+00  0.0000000000000D+00
389  3.8800000000000D+00  0.0000000000000D+00  0.0000000000000D+00
390  3.8900000000000D+00  0.0000000000000D+00  0.0000000000000D+00
391  3.9000000000000D+00  0.0000000000000D+00  0.0000000000000D+00
392  3.9100000000000D+00  0.0000000000000D+00  0.0000000000000D+00
393  3.9200000000000D+00  0.0000000000000D+00  0.0000000000000D+00
394  3.9300000000000D+00  0.0000000000000D+00  0.0000000000000D+00
395  3.9400000000000D+00  0.0000000000000D+00  0.0000000000000D+00
396  3.9500000000000D+00  0.0000000000000D+00  0.0000000000000D+00
397  3.9600000000000D+00  0.0000000000000D+00  0.0000000000000D+00
398  3.9700000000000D+00  0.0000000000000D+00  0.0000000000000D+00
399  3.9800000000000D+00  0.0000000000000D+00  0.0000000000000D+00
400  3.9900000000000D+00  0.0000000000000D+00  0.0000000000000D+00
401  4.0000000000000D+00  0.0000000000000D+00  0.0000000000000D+00
402  4.0100000000000D+00  0.0000000000000D+00  0.0000000000000D+00
403  4.0200000000000D+00  0.0000000000000D+00  0.0000000000000D+00
404  4.0300000000000D+00  0.0000000000000D+00  0.0000000000000D+00
405  4.0400000000000D+00  0.0000000000000D+00  0.0000000000000D+00
406  4.0500000000000D+00  0.0000000000000D+00  0.0000000000000D+00
407  4.0600000000000D+00  0.0000000000000D+00  0.0000000000000D+00
408  4.0700000000000D+00  0.0000000000000D+00  0.0000000000000D+00
409  4.0800000000000D+00  0.0000000000000D+00  0.0000000000000D+00
410  4.0900000000000D+00  0.0000000000000D+00  0.0000000000000D+00
411  4.1000000000000D+00  0.0000000000000D+00  0.0000000000000D+00
412  4.1100000000000D+00  0.0000000000000D+00  0.0000000000000D+00
413  4.1200000000000D+00  0.0000000000000D+00  0.0000000000000D+00
414  4.1300000000000D+00  0.0000000000000D+00  0.0000000000000D+00
415  4.1400000000000D+00  0.0000000000000D+00  0.0000000000000D+00
416  4.1500000000000D+00  0.0000000000000D+00  0.0000000000000D+00
417  4.1600000000000D+00  0.0000000000000D+00  0.0000000000000D+00
418  4.1700000000000D+00  0.0000000000000D+00  0.0000000000000D+00
419  4.1800000000000D+00  0.0000000000000D+00  0.0000000000000D+00
420  4.1900000000000D+00  0.0000000000000D+00  0.0000000000000D+00
421  4.2000000000000D+00  0.0000000000000D+00  0.0000000000000D+00
422  4.2100000000000D+00  0.0000000000000D+00  0.0000000000000D+00
423  4.2200000000000D+00  0.0000000000000D+00  0.0000000000000D+00
424  4.2300000000000D+00  0.0000000000000D+00  0.0000000000000D+00
425  4.2400000000000D+00  0.0000000000000D+00  0.0000000000000D+00
426  4.2500000000000D+00  0.0000000000000D+00  0.0000000000000D+00
427  4.2600000000000D+00  0.0000000000000D+00  0.0000000000000D+00
428  4.2700000000000D+00  0.0000000000000D+00  0.0000000000000D+00
429  4.2800000000000D+00  0.0000000000000D+00  0.0000000000000D+00
430  4.2900000000000D+00  0.0000000000000D+00  0.0000000000000D+00
431  4.3000000000000D+00  0.0000000000000D+00  0.0000000000000D+00
432  4.3100000000000D+00  0.0000000000000D+00  0.0000000000000D+00
433  4.3200000000000D+00  0.0000000000000D+00  0.0000000000000D+00
434  4.3300000000000D+00  0.0000000000000D+00  0.0000000000000D+00
435  4.3400000000000D+00  0.0000000000000D+00  0.0000000000000D+00
436  4.3500000000000D+00  0.0000000000000D+00  0.0000000000000D+00
437  4.3600000000000D+00  0.0000000000000D+00  0.0000000000000D+00
438  4.3700000000000D+00  0.0000000000000D+00  0.0000000000000D+00
439  4.3800000000000D+00  0.0000000000000D+00  0.0000000000000D+00
440  4.3900000000000D+00  0.0000000000000D+00  0.0000000000000D+00
441  4.4000000000000D+00  0.0000000000000D+00  0.0000000000000D+00
442  4.4100000000000D+00  0.0000000000000D+00  0.0000000000000D+00
443  4.4200000000000D+00  0.0000000000000D+00  0.0000000000000D+00