Po    ONCVPSP-3.3.0  r_core=   2.31453   2.20669   1.91239
84.0000     16.0000      180430    zatom,zion,pspd
8 -116133   2     4   600     0    pspcod,pspxc,lmax,lloc,mmax,r2well
5.99000000  6.00000000  0.00000000    rchrg fchrg qchrg
2     4     3     0    nproj
3     1           extension_switch
4     4     0    nprojso
0                         1.1456523161127D+00  6.6809319943892D+00
1  0.0000000000000D+00 -5.2386844862085D-12  1.7352230763379D-12
2  1.0000000000000D-02  1.5745992852298D-02  1.0765411414046D-02
3  2.0000000000000D-02  3.1424173574735D-02  2.1557348120301D-02
4  3.0000000000000D-02  4.6966968852612D-02  3.2402236019922D-02
5  4.0000000000000D-02  6.2307282321492D-02  4.3326302490457D-02
6  5.0000000000000D-02  7.7378731343525D-02  5.4355477769843D-02
7  6.0000000000000D-02  9.2115881748840D-02  6.5515297114159D-02
8  7.0000000000000D-02  1.0645447986988D-01  7.6830803984995D-02
9  8.0000000000000D-02  1.2033168120175D-01  8.8326454520571D-02
10  9.0000000000000D-02  1.3368627502823D-01  1.0002602354254D-01
11  1.0000000000000D-01  1.4645890436113D-01  1.1195251234775D-01
12  1.1000000000000D-01  1.5859228054990D-01  1.2412805853119D-01
13  1.2000000000000D-01  1.7003139192889D-01  1.3657384808268D-01
14  1.3000000000000D-01  1.8072370588201D-01  1.4931002999602D-01
15  1.4000000000000D-01  1.9061936371746D-01  1.6235563362466D-01
16  1.5000000000000D-01  1.9967136776044D-01  1.7572848901309D-01
17  1.6000000000000D-01  2.0783576008757D-01  1.8944515042768D-01
18  1.7000000000000D-01  2.1507179234443D-01  2.0352082330477D-01
19  1.8000000000000D-01  2.2134208610680D-01  2.1796929482737D-01
20  1.9000000000000D-01  2.2661278326628D-01  2.3280286833494D-01
21  2.0000000000000D-01  2.3085368594317D-01  2.4803230176329D-01
22  2.1000000000000D-01  2.3403838545246D-01  2.6366675030369D-01
23  2.2000000000000D-01  2.3614437987378D-01  2.7971371346186D-01
24  2.3000000000000D-01  2.3715317980203D-01  2.9617898668856D-01
25  2.4000000000000D-01  2.3705040188328D-01  3.1306661774403D-01
26  2.5000000000000D-01  2.3582584976914D-01  3.3037886794852D-01
27  2.6000000000000D-01  2.3347358215344D-01  3.4811617846075D-01
28  2.7000000000000D-01  2.2999196758668D-01  3.6627714171511D-01
29  2.8000000000000D-01  2.2538372579667D-01  3.8485847813681D-01
30  2.9000000000000D-01  2.1965595527823D-01  4.0385501824249D-01
31  3.0000000000000D-01  2.1282014695039D-01  4.2325969022100D-01
32  3.1000000000000D-01  2.0489218371638D-01  4.4306351307643D-01
33  3.2000000000000D-01  1.9589232579946D-01  4.6325559540193D-01
34  3.3000000000000D-01  1.8584518176713D-01  4.8382313983902D-01
35  3.4000000000000D-01  1.7477966519567D-01  5.0475145326307D-01
36  3.5000000000000D-01  1.6272893696868D-01  5.2602396272076D-01
37  3.6000000000000D-01  1.4973033324462D-01  5.4762223713060D-01
38  3.7000000000000D-01  1.3582527917120D-01  5.6952601474196D-01
39  3.8000000000000D-01  1.2105918846775D-01  5.9171323633287D-01
40  3.9000000000000D-01  1.0548134904042D-01  6.1416008411054D-01
41  4.0000000000000D-01  8.9144794839499D-02  6.3684102626270D-01
42  4.1000000000000D-01  7.2106164212469D-02  6.5972886709146D-01
43  4.2000000000000D-01  5.4425545051443D-02  6.8279480264494D-01
44  4.3000000000000D-01  3.6166307078111D-02  7.0600848174536D-01
45  4.4000000000000D-01  1.7394921654316D-02  7.2933807229561D-01
46  4.5000000000000D-01 -1.8192304494851D-03  7.5275033272985D-01
47  4.6000000000000D-01 -2.1404062851408D-02  7.7621068845686D-01
48  4.7000000000000D-01 -4.1284998401189D-02  7.9968331312868D-01
49  4.8000000000000D-01 -6.1385194506518D-02  8.2313121455045D-01
50  4.9000000000000D-01 -8.1625778338432D-02  8.4651632503162D-01
51  5.0000000000000D-01 -1.0192609127062D-01  8.6979959596240D-01
52  5.1000000000000D-01 -1.2220394186841D-01  8.9294109638438D-01
53  5.2000000000000D-01 -1.4237586670463D-01  9.1590011530866D-01
54  5.3000000000000D-01 -1.6235739824378D-01  9.3863526752053D-01
55  5.4000000000000D-01 -1.8206333900081D-01  9.6110460259547D-01
56  5.5000000000000D-01 -2.0140804114839D-01  9.8326571683772D-01
57  5.6000000000000D-01 -2.2030569071600D-01  1.0050758678399D+00
58  5.7000000000000D-01 -2.3867059549581D-01  1.0264920913501D+00
59  5.8000000000000D-01 -2.5641747574484D-01  1.0474713201203D+00
60  5.9000000000000D-01 -2.7346175674943D-01  1.0679705044025D+00
61  6.0000000000000D-01 -2.8971986229797D-01  1.0879467337446D+00
62  6.1000000000000D-01 -3.0510950809033D-01  1.1073573597341D+00
63  6.2000000000000D-01 -3.1954999409808D-01  1.1261601193262D+00
64  6.3000000000000D-01 -3.3296249487855D-01  1.1443132583888D+00
65  6.4000000000000D-01 -3.4527034683790D-01  1.1617756550902D+00
66  6.5000000000000D-01 -3.5639933143411D-01  1.1785069427504D+00
67  6.6000000000000D-01 -3.6627795330982D-01  1.1944676317748D+00
68  6.7000000000000D-01 -3.7483771234804D-01  1.2096192302868D+00
69  6.8000000000000D-01 -3.8201336864990D-01  1.2239243630736D+00
70  6.9000000000000D-01 -3.8774319944419D-01  1.2373468884633D+00
71  7.0000000000000D-01 -3.9196924695236D-01  1.2498520127491D+00
72  7.1000000000000D-01 -3.9463755625055D-01  1.2614064017835D+00
73  7.2000000000000D-01 -3.9569840219194D-01  1.2719782893668D+00
74  7.3000000000000D-01 -3.9510650447864D-01  1.2815375820629D+00
75  7.4000000000000D-01 -3.9282123000102D-01  1.2900559600801D+00
76  7.5000000000000D-01 -3.8880678159650D-01  1.2975069738654D+00
77  7.6000000000000D-01 -3.8303237241605D-01  1.3038661360693D+00
78  7.7000000000000D-01 -3.7547238512756D-01  1.3091110085506D+00
79  7.8000000000000D-01 -3.6610651522949D-01  1.3132212841021D+00
80  7.9000000000000D-01 -3.5491989779547D-01  1.3161788625942D+00
81  8.0000000000000D-01 -3.4190321702209D-01  1.3179679212455D+00
82  8.1000000000000D-01 -3.2705279800561D-01  1.3185749787496D+00
83  8.2000000000000D-01 -3.1037068023123D-01  1.3179889530019D+00
84  8.3000000000000D-01 -2.9186467231794D-01  1.3162012121907D+00
85  8.4000000000000D-01 -2.7154838762544D-01  1.3132056190376D+00
86  8.5000000000000D-01 -2.4944126039404D-01  1.3089985679899D+00
87  8.6000000000000D-01 -2.2556854215672D-01  1.3035790151935D+00
88  8.7000000000000D-01 -1.9996127823116D-01  1.2969485010952D+00
89  8.8000000000000D-01 -1.7265626417153D-01  1.2891111655471D+00
90  8.9000000000000D-01 -1.4369598213171D-01  1.2800737553118D+00
91  9.0000000000000D-01 -1.1312851716621D-01  1.2698456238895D+00
92  9.1000000000000D-01 -8.1007453569359D-02  1.2584387236163D+00
93  9.2000000000000D-01 -4.7391751429065D-02  1.2458675900066D+00
94  9.3000000000000D-01 -1.2345603647006D-02  1.2321493183415D+00
95  9.4000000000000D-01  2.4061726246898D-02  1.2173035325290D+00
96  9.5000000000000D-01  6.1756085082617D-02  1.2013523462912D+00
97  9.6000000000000D-01  1.0065862936265D-01  1.1843203167581D+00
98  9.7000000000000D-01  1.4068604234717D-01  1.1662343905773D+00
99  9.8000000000000D-01  1.8175076828698D-01  1.1471238426729D+00
100  9.9000000000000D-01  2.2376126310866D-01  1.1270202078145D+00
101  1.0000000000000D+00  2.6662226078649D-01  1.1059572051854D+00
102  1.0100000000000D+00  3.1023505457059D-01  1.0839706561587D+00
103  1.0200000000000D+00  3.5449779217352D-01  1.0610983955234D+00
104  1.0300000000000D+00  3.9930578395837D-01  1.0373801764190D+00
105  1.0400000000000D+00  4.4455182311178D-01  1.0128575692667D+00
106  1.0500000000000D+00  4.9012651673037D-01  9.8757385500334D-01
107  1.0600000000000D+00  5.3591862669784D-01  9.6157391295017D-01
108  1.0700000000000D+00  5.8181541918400D-01  9.3490410366473D-01
109  1.0800000000000D+00  6.2770302155050D-01  9.0761214714738D-01
110  1.0900000000000D+00  6.7346678541247D-01  8.7974699678962D-01
111  1.1000000000000D+00  7.1899165456914D-01  8.5135870946969D-01
112  1.1100000000000D+00  7.6416253648936D-01  8.2249831221468D-01
113  1.1200000000000D+00  8.0886467601166D-01  7.9321766586352D-01
114  1.1300000000000D+00  8.5298402989980D-01  7.6356932617728D-01
115  1.1400000000000D+00  8.9640764088193D-01  7.3360640285343D-01
116  1.1500000000000D+00  9.3902400979332D-01  7.0338241690973D-01
117  1.1600000000000D+00  9.8072346443810D-01  6.7295115691046D-01
118  1.1700000000000D+00  1.0213985237892D+00  6.4236653451410D-01
119  1.1800000000000D+00  1.0609442561566D+00  6.1168243982396D-01
120  1.1900000000000D+00  1.0992586299633D+00  5.8095259702530D-01
121  1.2000000000000D+00  1.1362428557900D+00  5.5023042079347D-01
122  1.2100000000000D+00  1.1718017183770D+00  5.1956887395444D-01
123  1.2200000000000D+00  1.2058438973061D+00  4.8902032687466D-01
124  1.2300000000000D+00  1.2382822751020D+00  4.5863641905518D-01
125  1.2400000000000D+00  1.2690342315595D+00  4.2846792339361D-01
126  1.2500000000000D+00  1.2980219231510D+00  3.9856461356626D-01
127  1.2600000000000D+00  1.3251725463746D+00  3.6897513498246D-01
128  1.2700000000000D+00  1.3504185840200D+00  3.3974687973778D-01
129  1.2800000000000D+00  1.3736980333775D+00  3.1092586597930D-01
130  1.2900000000000D+00  1.3949546154208D+00  2.8255662209595D-01
131  1.3000000000000D+00  1.4141379641483D+00  2.5468207610906D-01
132  1.3100000000000D+00  1.4312037953250D+00  2.2734345062059D-01
133  1.3200000000000D+00  1.4461140538488D+00  2.0058016368354D-01
134  1.3300000000000D+00  1.4588370391954D+00  1.7442973589650D-01
135  1.3400000000000D+00  1.4693475083945D+00  1.4892770402208D-01
136  1.3500000000000D+00  1.4776267560206D+00  1.2410754142377D-01
137  1.3600000000000D+00  1.4836626709361D+00  1.0000058553998D-01
138  1.3700000000000D+00  1.4874497694471D+00  7.6635972637141D-02
139  1.3800000000000D+00  1.4889892046775D+00  5.4040580042422D-02
140  1.3900000000000D+00  1.4882887521854D+00  3.2238975987666D-02
141  1.4000000000000D+00  1.4853627716558D+00  1.1253377256685D-02
142  1.4100000000000D+00  1.4802321449221D+00 -8.8963853016857D-03
143  1.4200000000000D+00  1.4729241904561D+00 -2.8192893299426D-02
144  1.4300000000000D+00  1.4634725545346D+00 -4.6621159296787D-02
145  1.4400000000000D+00  1.4519170796541D+00 -6.4168637295050D-02
146  1.4500000000000D+00  1.4383036504122D+00 -8.0825225160465D-02
147  1.4600000000000D+00  1.4226840176387D+00 -9.6583259092970D-02
148  1.4700000000000D+00  1.4051156012967D+00 -1.1143750016683D-01
149  1.4800000000000D+00  1.3856612728695D+00 -1.2538511303395D-01
150  1.4900000000000D+00  1.3643891181948D+00 -1.3842563697028D-01
151  1.5000000000000D+00  1.3413721813718D+00 -1.5056094932334D-01
152  1.5100000000000D+00  1.3166881910227D+00 -1.6179522165807D-01
153  1.5200000000000D+00  1.2904192696277D+00 -1.7213486869129D-01
154  1.5300000000000D+00  1.2626516272869D+00 -1.8158849034183D-01
155  1.5400000000000D+00  1.2334752409006D+00 -1.9016680708944D-01
156  1.5500000000000D+00  1.2029835200579D+00 -1.9788258894617D-01
157  1.5600000000000D+00  1.1712729609114D+00 -2.0475057835156D-01
158  1.5700000000000D+00  1.1384427892704D+00 -2.1078740726805D-01
159  1.5800000000000D+00  1.1045945943976D+00 -2.1601150888821D-01
160  1.5900000000000D+00  1.0698319547327D+00 -2.2044302421530D-01
161  1.6000000000000D+00  1.0342600571341D+00 -2.2410370400076D-01
162  1.6100000000000D+00  9.9798531091381D-01 -2.2701680630655D-01
163  1.6200000000000D+00  9.6111495824956D-01 -2.2920699020550D-01
164  1.6300000000000D+00  9.2375668235889D-01 -2.3070020592854D-01
165  1.6400000000000D+00  8.8601821493117D-01 -2.3152358195964D-01
166  1.6500000000000D+00  8.4800694430637D-01 -2.3170530943961D-01
167  1.6600000000000D+00  8.0982952579025D-01 -2.3127452435686D-01
168  1.6700000000000D+00  7.7159149565861D-01 -2.3026118792719D-01
169  1.6800000000000D+00  7.3339689012181D-01 -2.2869596561638D-01
170  1.6900000000000D+00  6.9534787083677D-01 -2.2661010523671D-01
171  1.7000000000000D+00  6.5754435808883D-01 -2.2403531454163D-01
172  1.7100000000000D+00  6.2008367326169D-01 -2.2100363877295D-01
173  1.7200000000000D+00  5.8306019151088D-01 -2.1754733854293D-01
174  1.7300000000000D+00  5.4656500632048D-01 -2.1369876853156D-01
175  1.7400000000000D+00  5.1068560655921D-01 -2.0949025731806D-01
176  1.7500000000000D+00  4.7550556784758D-01 -2.0495398886671D-01
177  1.7600000000000D+00  4.4110425842390D-01 -2.0012188589003D-01
178  1.7700000000000D+00  4.0755656156329D-01 -1.9502549567523D-01
179  1.7800000000000D+00  3.7493261415085D-01 -1.8969587845827D-01
180  1.7900000000000D+00  3.4329756382427D-01 -1.8416349902905D-01
181  1.8000000000000D+00  3.1271134360778D-01 -1.7845812148190D-01
182  1.8100000000000D+00  2.8322846674396D-01 -1.7260870788301D-01
183  1.8200000000000D+00  2.5489784023363D-01 -1.6664332065234D-01
184  1.8300000000000D+00  2.2776259957745D-01 -1.6058902940338D-01
185  1.8400000000000D+00  2.0185996338389D-01 -1.5447182205471D-01
186  1.8500000000000D+00  1.7722110694892D-01 -1.4831652014934D-01
187  1.8600000000000D+00  1.5387106855748D-01 -1.4214670185792D-01
188  1.8700000000000D+00  1.3182865140207D-01 -1.3598462361582D-01
189  1.8800000000000D+00  1.1110637358077D-01 -1.2985115398781D-01
190  1.8900000000000D+00  9.1710500523941D-02 -1.2376572815078D-01
191  1.9000000000000D+00  7.3640930943380D-02 -1.1774626296683D-01
192  1.9100000000000D+00  5.6890897466134D-02 -1.1180903516629D-01
193  1.9200000000000D+00  4.1447755053533D-02 -1.0596881821335D-01
194  1.9300000000000D+00  2.7293400322403D-02 -1.0023892692952D-01
195  1.9400000000000D+00  1.4404796486192D-02 -9.4631313404933D-02
196  1.9500000000000D+00  2.7547205351024D-03 -8.9156719482171D-02
197  1.9600000000000D+00 -7.6877895805005D-03 -8.3824758857154D-02
198  1.9700000000000D+00 -1.6957439808155D-02 -7.8643893914579D-02
199  1.9800000000000D+00 -2.5092578229139D-02 -7.3621444303521D-02
200  1.9900000000000D+00 -3.2134801512915D-02 -6.8763657702900D-02
201  2.0000000000000D+00 -3.8128773882536D-02 -6.4075735587189D-02
202  2.0100000000000D+00 -4.3121960209602D-02 -5.9561879243813D-02
203  2.0200000000000D+00 -4.7164360976561D-02 -5.5225336331409D-02
204  2.0300000000000D+00 -5.0308242375600D-02 -5.1068449524907D-02
205  2.0400000000000D+00 -5.2607858113824D-02 -4.7092708032096D-02
206  2.0500000000000D+00 -5.4119166208066D-02 -4.3298801130096D-02
207  2.0600000000000D+00 -5.4899541209015D-02 -3.9686673679198D-02
208  2.0700000000000D+00 -5.5007483670302D-02 -3.6255583080854D-02
209  2.0800000000000D+00 -5.4502327868627D-02 -3.3004157463965D-02
210  2.0900000000000D+00 -5.3443949054960D-02 -2.9930454758762D-02
211  2.1000000000000D+00 -5.1892471339218D-02 -2.7032022349161D-02
212  2.1100000000000D+00 -4.9907977943035D-02 -2.4305956898557D-02
213  2.1200000000000D+00 -4.7550224220713D-02 -2.1748964193534D-02
214  2.1300000000000D+00 -4.4878355501359D-02 -1.9357418505507D-02
215  2.1400000000000D+00 -4.1950630653235D-02 -1.7127421222916D-02
216  2.1500000000000D+00 -3.8824151710625D-02 -1.5054858647272D-02
217  2.1600000000000D+00 -3.5554602717997D-02 -1.3135458159758D-02
218  2.1700000000000D+00 -3.2195996366091D-02 -1.1364843093773D-02
219  2.1800000000000D+00 -2.8800431343681D-02 -9.7385855663075D-03
220  2.1900000000000D+00 -2.5417861369238D-02 -8.2522570100790D-03
221  2.2000000000000D+00 -2.2095874477602D-02 -6.9014767644641D-03
222  2.2100000000000D+00 -1.8879487735163D-02 -5.6819573826767D-03
223  2.2200000000000D+00 -1.5810954164054D-02 -4.5895474826377D-03
224  2.2300000000000D+00 -1.2929584274749D-02 -3.6202715133640D-03
225  2.2400000000000D+00 -1.0274039596066D-02 -2.7707582497943D-03
226  2.2500000000000D+00 -7.8734061976541D-03 -2.0368703462068D-03
227  2.2600000000000D+00 -5.7540669935661D-03 -1.4148557419907D-03
228  2.2700000000000D+00 -3.9296518370123D-03 -9.0058040039181D-04
229  2.2800000000000D+00 -2.4609591403286D-03 -4.9585523885253D-04
230  2.2900000000000D+00 -1.3860373658185D-03 -1.9975734208864D-04
231  2.3000000000000D+00 -7.0201217952134D-04 -8.0233703430924D-06
232  2.3100000000000D+00 -3.1405147341516D-04  8.8568579079336D-05
233  2.3200000000000D+00 -1.1620293771446D-04  1.0227237396781D-04
234  2.3300000000000D+00 -2.7930310857761D-05  6.2939828098125D-05
235  2.3400000000000D+00 -1.6214512583173D-06  1.0544024618344D-05
236  2.3500000000000D+00  4.9728861321504D-07 -1.4883215344829D-05
237  2.3600000000000D+00 -1.2963406605636D-06 -1.4265916738318D-05
238  2.3700000000000D+00 -1.1219513339494D-07 -6.3785323640990D-07
239  2.3800000000000D+00 -9.3631317119597D-07  3.3206689125542D-06
240  2.3900000000000D+00 -6.3853220605079D-07  2.8059569740385D-06
241  2.4000000000000D+00  8.8019977354787D-08 -4.4097512104286D-08
242  2.4100000000000D+00  5.7460742606210D-07 -2.8787507890228D-07
243  2.4200000000000D+00  4.2040139605298D-07 -2.1061872779608D-07
244  2.4300000000000D+00  0.0000000000000D+00  0.0000000000000D+00
245  2.4400000000000D+00  0.0000000000000D+00  0.0000000000000D+00
246  2.4500000000000D+00  0.0000000000000D+00  0.0000000000000D+00
247  2.4600000000000D+00  0.0000000000000D+00  0.0000000000000D+00
248  2.4700000000000D+00  0.0000000000000D+00  0.0000000000000D+00
249  2.4800000000000D+00  0.0000000000000D+00  0.0000000000000D+00
250  2.4900000000000D+00  0.0000000000000D+00  0.0000000000000D+00
251  2.5000000000000D+00  0.0000000000000D+00  0.0000000000000D+00
252  2.5100000000000D+00  0.0000000000000D+00  0.0000000000000D+00
253  2.5200000000000D+00  0.0000000000000D+00  0.0000000000000D+00
254  2.5300000000000D+00  0.0000000000000D+00  0.0000000000000D+00
255  2.5400000000000D+00  0.0000000000000D+00  0.0000000000000D+00
256  2.5500000000000D+00  0.0000000000000D+00  0.0000000000000D+00
257  2.5600000000000D+00  0.0000000000000D+00  0.0000000000000D+00
258  2.5700000000000D+00  0.0000000000000D+00  0.0000000000000D+00
259  2.5800000000000D+00  0.0000000000000D+00  0.0000000000000D+00
260  2.5900000000000D+00  0.0000000000000D+00  0.0000000000000D+00
261  2.6000000000000D+00  0.0000000000000D+00  0.0000000000000D+00
262  2.6100000000000D+00  0.0000000000000D+00  0.0000000000000D+00
263  2.6200000000000D+00  0.0000000000000D+00  0.0000000000000D+00
264  2.6300000000000D+00  0.0000000000000D+00  0.0000000000000D+00
265  2.6400000000000D+00  0.0000000000000D+00  0.0000000000000D+00
266  2.6500000000000D+00  0.0000000000000D+00  0.0000000000000D+00
267  2.6600000000000D+00  0.0000000000000D+00  0.0000000000000D+00
268  2.6700000000000D+00  0.0000000000000D+00  0.0000000000000D+00
269  2.6800000000000D+00  0.0000000000000D+00  0.0000000000000D+00
270  2.6900000000000D+00  0.0000000000000D+00  0.0000000000000D+00
271  2.7000000000000D+00  0.0000000000000D+00  0.0000000000000D+00
272  2.7100000000000D+00  0.0000000000000D+00  0.0000000000000D+00
273  2.7200000000000D+00  0.0000000000000D+00  0.0000000000000D+00
274  2.7300000000000D+00  0.0000000000000D+00  0.0000000000000D+00
275  2.7400000000000D+00  0.0000000000000D+00  0.0000000000000D+00
276  2.7500000000000D+00  0.0000000000000D+00  0.0000000000000D+00
277  2.7600000000000D+00  0.0000000000000D+00  0.0000000000000D+00
278  2.7700000000000D+00  0.0000000000000D+00  0.0000000000000D+00
279  2.7800000000000D+00  0.0000000000000D+00  0.0000000000000D+00
280  2.7900000000000D+00  0.0000000000000D+00  0.0000000000000D+00
281  2.8000000000000D+00  0.0000000000000D+00  0.0000000000000D+00
282  2.8100000000000D+00  0.0000000000000D+00  0.0000000000000D+00
283  2.8200000000000D+00  0.0000000000000D+00  0.0000000000000D+00
284  2.8300000000000D+00  0.0000000000000D+00  0.0000000000000D+00
285  2.8400000000000D+00  0.0000000000000D+00  0.0000000000000D+00
286  2.8500000000000D+00  0.0000000000000D+00  0.0000000000000D+00
287  2.8600000000000D+00  0.0000000000000D+00  0.0000000000000D+00
288  2.8700000000000D+00  0.0000000000000D+00  0.0000000000000D+00
289  2.8800000000000D+00  0.0000000000000D+00  0.0000000000000D+00
290  2.8900000000000D+00  0.0000000000000D+00  0.0000000000000D+00
291  2.9000000000000D+00  0.0000000000000D+00  0.0000000000000D+00
292  2.9100000000000D+00  0.0000000000000D+00  0.0000000000000D+00
293  2.9200000000000D+00  0.0000000000000D+00  0.0000000000000D+00
294  2.9300000000000D+00  0.0000000000000D+00  0.0000000000000D+00
295  2.9400000000000D+00  0.0000000000000D+00  0.0000000000000D+00
296  2.9500000000000D+00  0.0000000000000D+00  0.0000000000000D+00
297  2.9600000000000D+00  0.0000000000000D+00  0.0000000000000D+00
298  2.9700000000000D+00  0.0000000000000D+00  0.0000000000000D+00
299  2.9800000000000D+00  0.0000000000000D+00  0.0000000000000D+00
300  2.9900000000000D+00  0.0000000000000D+00  0.0000000000000D+00
301  3.0000000000000D+00  0.0000000000000D+00  0.0000000000000D+00
302  3.0100000000000D+00  0.0000000000000D+00  0.0000000000000D+00
303  3.0200000000000D+00  0.0000000000000D+00  0.0000000000000D+00
304  3.0300000000000D+00  0.0000000000000D+00  0.0000000000000D+00
305  3.0400000000000D+00  0.0000000000000D+00  0.0000000000000D+00
306  3.0500000000000D+00  0.0000000000000D+00  0.0000000000000D+00
307  3.0600000000000D+00  0.0000000000000D+00  0.0000000000000D+00
308  3.0700000000000D+00  0.0000000000000D+00  0.0000000000000D+00
309  3.0800000000000D+00  0.0000000000000D+00  0.0000000000000D+00
310  3.0900000000000D+00  0.0000000000000D+00  0.0000000000000D+00
311  3.1000000000000D+00  0.0000000000000D+00  0.0000000000000D+00
312  3.1100000000000D+00  0.0000000000000D+00  0.0000000000000D+00
313  3.1200000000000D+00  0.0000000000000D+00  0.0000000000000D+00
314  3.1300000000000D+00  0.0000000000000D+00  0.0000000000000D+00
315  3.1400000000000D+00  0.0000000000000D+00  0.0000000000000D+00
316  3.1500000000000D+00  0.0000000000000D+00  0.0000000000000D+00
317  3.1600000000000D+00  0.0000000000000D+00  0.0000000000000D+00
318  3.1700000000000D+00  0.0000000000000D+00  0.0000000000000D+00
319  3.1800000000000D+00  0.0000000000000D+00  0.0000000000000D+00
320  3.1900000000000D+00  0.0000000000000D+00  0.0000000000000D+00
321  3.2000000000000D+00  0.0000000000000D+00  0.0000000000000D+00
322  3.2100000000000D+00  0.0000000000000D+00  0.0000000000000D+00
323  3.2200000000000D+00  0.0000000000000D+00  0.0000000000000D+00
324  3.2300000000000D+00  0.0000000000000D+00  0.0000000000000D+00
325  3.2400000000000D+00  0.0000000000000D+00  0.0000000000000D+00
326  3.2500000000000D+00  0.0000000000000D+00  0.0000000000000D+00
327  3.2600000000000D+00  0.0000000000000D+00  0.0000000000000D+00
328  3.2700000000000D+00  0.0000000000000D+00  0.0000000000000D+00
329  3.2800000000000D+00  0.0000000000000D+00  0.0000000000000D+00
330  3.2900000000000D+00  0.0000000000000D+00  0.0000000000000D+00
331  3.3000000000000D+00  0.0000000000000D+00  0.0000000000000D+00
332  3.3100000000000D+00  0.0000000000000D+00  0.0000000000000D+00
333  3.3200000000000D+00  0.0000000000000D+00  0.0000000000000D+00
334  3.3300000000000D+00  0.0000000000000D+00  0.0000000000000D+00
335  3.3400000000000D+00  0.0000000000000D+00  0.0000000000000D+00
336  3.3500000000000D+00  0.0000000000000D+00  0.0000000000000D+00
337  3.3600000000000D+00  0.0000000000000D+00  0.0000000000000D+00
338  3.3700000000000D+00  0.0000000000000D+00  0.0000000000000D+00
339  3.3800000000000D+00  0.0000000000000D+00  0.0000000000000D+00
340  3.3900000000000D+00  0.0000000000000D+00  0.0000000000000D+00
341  3.4000000000000D+00  0.0000000000000D+00  0.0000000000000D+00
342  3.4100000000000D+00  0.0000000000000D+00  0.0000000000000D+00
343  3.4200000000000D+00  0.0000000000000D+00  0.0000000000000D+00
344  3.4300000000000D+00  0.0000000000000D+00  0.0000000000000D+00
345  3.4400000000000D+00  0.0000000000000D+00  0.0000000000000D+00
346  3.4500000000000D+00  0.0000000000000D+00  0.0000000000000D+00
347  3.4600000000000D+00  0.0000000000000D+00  0.0000000000000D+00
348  3.4700000000000D+00  0.0000000000000D+00  0.0000000000000D+00
349  3.4800000000000D+00  0.0000000000000D+00  0.0000000000000D+00
350  3.4900000000000D+00  0.0000000000000D+00  0.0000000000000D+00
351  3.5000000000000D+00  0.0000000000000D+00  0.0000000000000D+00
352  3.5100000000000D+00  0.0000000000000D+00  0.0000000000000D+00
353  3.5200000000000D+00  0.0000000000000D+00  0.0000000000000D+00
354  3.5300000000000D+00  0.0000000000000D+00  0.0000000000000D+00
355  3.5400000000000D+00  0.0000000000000D+00  0.0000000000000D+00
356  3.5500000000000D+00  0.0000000000000D+00  0.0000000000000D+00
357  3.5600000000000D+00  0.0000000000000D+00  0.0000000000000D+00
358  3.5700000000000D+00  0.0000000000000D+00  0.0000000000000D+00
359  3.5800000000000D+00  0.0000000000000D+00  0.0000000000000D+00
360  3.5900000000000D+00  0.0000000000000D+00  0.0000000000000D+00
361  3.6000000000000D+00  0.0000000000000D+00  0.0000000000000D+00
362  3.6100000000000D+00  0.0000000000000D+00  0.0000000000000D+00
363  3.6200000000000D+00  0.0000000000000D+00  0.0000000000000D+00
364  3.6300000000000D+00  0.0000000000000D+00  0.0000000000000D+00
365  3.6400000000000D+00  0.0000000000000D+00  0.0000000000000D+00
366  3.6500000000000D+00  0.0000000000000D+00  0.0000000000000D+00
367  3.6600000000000D+00  0.0000000000000D+00  0.0000000000000D+00
368  3.6700000000000D+00  0.0000000000000D+00  0.0000000000000D+00
369  3.6800000000000D+00  0.0000000000000D+00  0.0000000000000D+00
370  3.6900000000000D+00  0.0000000000000D+00  0.0000000000000D+00
371  3.7000000000000D+00  0.0000000000000D+00  0.0000000000000D+00
372  3.7100000000000D+00  0.0000000000000D+00  0.0000000000000D+00
373  3.7200000000000D+00  0.0000000000000D+00  0.0000000000000D+00
374  3.7300000000000D+00  0.0000000000000D+00  0.0000000000000D+00
375  3.7400000000000D+00  0.0000000000000D+00  0.0000000000000D+00
376  3.7500000000000D+00  0.0000000000000D+00  0.0000000000000D+00
377  3.7600000000000D+00  0.0000000000000D+00  0.0000000000000D+00
378  3.7700000000000D+00  0.0000000000000D+00  0.0000000000000D+00
379  3.7800000000000D+00  0.0000000000000D+00  0.0000000000000D+00
380  3.7900000000000D+00  0.0000000000000D+00  0.0000000000000D+00
381  3.8000000000000D+00  0.0000000000000D+00  0.0000000000000D+00
382  3.8100000000000D+00  0.0000000000000D+00  0.0000000000000D+00
383  3.8200000000000D+00  0.0000000000000D+00  0.0000000000000D+00
384  3.8300000000000D+00  0.0000000000000D+00  0.0000000000000D+00
385  3.8400000000000D+00  0.0000000000000D+00  0.0000000000000D+00
386  3.8500000000000D+00  0.0000000000000D+00  0.0000000000000D+00
387  3.8600000000000D+00  0.0000000000000D+00  0.0000000000000D+00
388  3.8700000000000D+00  0.0000000000000D+00  0.0000000000000D+00
389  3.8800000000000D+00  0.0000000000000D+00  0.0000000000000D+00
390  3.8900000000000D+00  0.0000000000000D+00  0.0000000000000D+00
391  3.9000000000000D+00  0.0000000000000D+00  0.0000000000000D+00
392  3.9100000000000D+00  0.0000000000000D+00  0.0000000000000D+00
393  3.9200000000000D+00  0.0000000000000D+00  0.0000000000000D+00
394  3.9300000000000D+00  0.0000000000000D+00  0.0000000000000D+00
395  3.9400000000000D+00  0.0000000000000D+00  0.0000000000000D+00
396  3.9500000000000D+00  0.0000000000000D+00  0.0000000000000D+00
397  3.9600000000000D+00  0.0000000000000D+00  0.0000000000000D+00
398  3.9700000000000D+00  0.0000000000000D+00  0.0000000000000D+00
399  3.9800000000000D+00  0.0000000000000D+00  0.0000000000000D+00
400  3.9900000000000D+00  0.0000000000000D+00  0.0000000000000D+00
401  4.0000000000000D+00  0.0000000000000D+00  0.0000000000000D+00
402  4.0100000000000D+00  0.0000000000000D+00  0.0000000000000D+00
403  4.0200000000000D+00  0.0000000000000D+00  0.0000000000000D+00
404  4.0300000000000D+00  0.0000000000000D+00  0.0000000000000D+00
405  4.0400000000000D+00  0.0000000000000D+00  0.0000000000000D+00
406  4.0500000000000D+00  0.0000000000000D+00  0.0000000000000D+00
407  4.0600000000000D+00  0.0000000000000D+00  0.0000000000000D+00
408  4.0700000000000D+00  0.0000000000000D+00  0.0000000000000D+00
409  4.0800000000000D+00  0.0000000000000D+00  0.0000000000000D+00
410  4.0900000000000D+00  0.0000000000000D+00  0.0000000000000D+00
411  4.1000000000000D+00  0.0000000000000D+00  0.0000000000000D+00
412  4.1100000000000D+00  0.0000000000000D+00  0.0000000000000D+00
413  4.1200000000000D+00  0.0000000000000D+00  0.0000000000000D+00
414  4.1300000000000D+00  0.0000000000000D+00  0.0000000000000D+00
415  4.1400000000000D+00  0.0000000000000D+00  0.0000000000000D+00
416  4.1500000000000D+00  0.0000000000000D+00  0.0000000000000D+00
417  4.1600000000000D+00  0.0000000000000D+00  0.0000000000000D+00
418  4.1700000000000D+00  0.0000000000000D+00  0.0000000000000D+00
419  4.1800000000000D+00  0.0000000000000D+00  0.0000000000000D+00
420  4.1900000000000D+00  0.0000000000000D+00  0.0000000000000D+00
421  4.2000000000000D+00  0.0000000000000D+00  0.0000000000000D+00
422  4.2100000000000D+00  0.0000000000000D+00  0.0000000000000D+00
423  4.2200000000000D+00  0.0000000000000D+00  0.0000000000000D+00
424  4.2300000000000D+00  0.0000000000000D+00  0.0000000000000D+00
425  4.2400000000000D+00  0.0000000000000D+00  0.0000000000000D+00
426  4.2500000000000D+00  0.0000000000000D+00  0.0000000000000D+00
427  4.2600000000000D+00  0.0000000000000D+00  0.0000000000000D+00
428  4.2700000000000D+00  0.0000000000000D+00  0.0000000000000D+00
429  4.2800000000000D+00  0.0000000000000D+00  0.0000000000000D+00
430  4.2900000000000D+00  0.0000000000000D+00  0.0000000000000D+00
431  4.3000000000000D+00  0.0000000000000D+00  0.0000000000000D+00
432  4.3100000000000D+00  0.0000000000000D+00  0.0000000000000D+00
433  4.3200000000000D+00  0.0000000000000D+00  0.0000000000000D+00
434  4.3300000000000D+00  0.0000000000000D+00  0.0000000000000D+00
435  4.3400000000000D+00  0.0000000000000D+00  0.0000000000000D+00
436  4.3500000000000D+00  0.0000000000000D+00  0.0000000000000D+00
437  4.3600000000000D+00  0.0000000000000D+00  0.0000000000000D+00
438  4.3700000000000D+00  0.0000000000000D+00  0.0000000000000D+00
439  4.3800000000000D+00  0.0000000000000D+00  0.0000000000000D+00
440  4.3900000000000D+00  0.0000000000000D+00  0.0000000000000D+00
441  4.4000000000000D+00  0.0000000000000D+00  0.0000000000000D+00
442  4.4100000000000D+00  0.0000000000000D+00  0.0000000000000D+00
443  4.4200000000000D+00  0.0000000000000D+00  0.0000000000000D+00