Rb    ONCVPSP-3.3.0  r_core=   1.71227   1.75361   1.90633
37.0000      9.0000      180429    zatom,zion,pspd
8 -116133   2     4   600     0    pspcod,pspxc,lmax,lloc,mmax,r2well
5.99000000  7.00000000  0.00000000    rchrg fchrg qchrg
2     4     3     0    nproj
3     1           extension_switch
4     4     0    nprojso
0                        -4.7691154350437D-01  8.1985332604768D+00
1  0.0000000000000D+00  1.6684604808859D-09  3.9342351598748D-10
2  1.0000000000000D-02 -7.2005453053108D-03  5.7203231646554D-02
3  2.0000000000000D-02 -1.4281517434400D-02  1.1434643591019D-01
4  3.0000000000000D-02 -2.1125212396853D-02  1.7136926557412D-01
5  4.0000000000000D-02 -2.7617635524400D-02  2.2821074058865D-01
6  5.0000000000000D-02 -3.3650283941035D-02  2.8480894863966D-01
7  6.0000000000000D-02 -3.9121843609270D-02  3.4110076581509D-01
8  7.0000000000000D-02 -4.3939774468009D-02  3.9702160359955D-01
9  8.0000000000000D-02 -4.8021758845960D-02  4.5250518803379D-01
10  9.0000000000000D-02 -5.1296990374233D-02  5.0748337639477D-01
11  1.0000000000000D-01 -5.3707283002933D-02  5.6188601618995D-01
12  1.1000000000000D-01 -5.5207982414628D-02  6.1564085062478D-01
13  1.2000000000000D-01 -5.5768665083248D-02  6.6867347400397D-01
14  1.3000000000000D-01 -5.5373613407401D-02  7.2090733977496D-01
15  1.4000000000000D-01 -5.4022058705636D-02  7.7226382312733D-01
16  1.5000000000000D-01 -5.1728187349025D-02  8.2266233923503D-01
17  1.6000000000000D-01 -4.8520908872337D-02  8.7202051738266D-01
18  1.7000000000000D-01 -4.4443388497137D-02  9.2025443036334D-01
19  1.8000000000000D-01 -3.9552350065310D-02  9.6727887768705D-01
20  1.9000000000000D-01 -3.3917158867760D-02  1.0130077203068D+00
21  2.0000000000000D-01 -2.7618697208761D-02  1.0573542637676D+00
22  2.1000000000000D-01 -2.0748048722269D-02  1.1002316859207D+00
23  2.2000000000000D-01 -1.3405010405190D-02  1.1415535046361D+00
24  2.3000000000000D-01 -5.6964540105582D-03  1.1812340802989D+00
25  2.4000000000000D-01  2.2654391895114D-03  1.2191891472953D+00
26  2.5000000000000D-01  1.0365044240754D-02  1.2553363682013D+00
27  2.6000000000000D-01  1.8485231269939D-02  1.2895959039758D+00
28  2.7000000000000D-01  2.6509348260060D-02  1.3218909931417D+00
29  2.8000000000000D-01  3.4323218104231D-02  1.3521485327240D+00
30  2.9000000000000D-01  4.1817119821877D-02  1.3802996535948D+00
31  3.0000000000000D-01  4.8887723879714D-02  1.4062802828609D+00
32  3.1000000000000D-01  5.5439952062667D-02  1.4300316860241D+00
33  3.2000000000000D-01  6.1388733279676D-02  1.4515009818306D+00
34  3.3000000000000D-01  6.6660628054950D-02  1.4706416230265D+00
35  3.4000000000000D-01  7.1195296227789D-02  1.4874138366201D+00
36  3.5000000000000D-01  7.4946784539632D-02  1.5017850177361D+00
37  3.6000000000000D-01  7.7884613295193D-02  1.5137300717088D+00
38  3.7000000000000D-01  7.9994644110790D-02  1.5232316997032D+00
39  3.8000000000000D-01  8.1279713866447D-02  1.5302806238644D+00
40  3.9000000000000D-01  8.1760023315670D-02  1.5348757487550D+00
41  4.0000000000000D-01  8.1473272329766D-02  1.5370242566614D+00
42  4.1000000000000D-01  8.0474537411564D-02  1.5367416351890D+00
43  4.2000000000000D-01  7.8835890853655D-02  1.5340516364445D+00
44  4.3000000000000D-01  7.6645764684658D-02  1.5289861679798D+00
45  4.4000000000000D-01  7.4008066288094D-02  1.5215851165536D+00
46  4.5000000000000D-01  7.1041056238143D-02  1.5118961066330D+00
47  4.6000000000000D-01  6.7876002420396D-02  1.4999741963929D+00
48  4.7000000000000D-01  6.4655627842105D-02  1.4858815147731D+00
49  4.8000000000000D-01  6.1532372634822D-02  1.4696868439006D+00
50  4.9000000000000D-01  5.8666493568126D-02  1.4514651518723D+00
51  5.0000000000000D-01  5.6224026881340D-02  1.4312970815103D+00
52  5.1000000000000D-01  5.4374642365164D-02  1.4092684012402D+00
53  5.2000000000000D-01  5.3289418352330D-02  1.3854694246884D+00
54  5.3000000000000D-01  5.3138568580246D-02  1.3599944059527D+00
55  5.4000000000000D-01  5.4089152746154D-02  1.3329409177533D+00
56  5.5000000000000D-01  5.6302802973637D-02  1.3044092198244D+00
57  5.6000000000000D-01  5.9933498338867D-02  1.2745016249535D+00
58  5.7000000000000D-01  6.5125419065481D-02  1.2433218700155D+00
59  5.8000000000000D-01  7.2010910994292D-02  1.2109744991852D+00
60  5.9000000000000D-01  8.0708589477950D-02  1.1775642662441D+00
61  6.0000000000000D-01  9.1321609965781D-02  1.1431955625324D+00
62  6.1000000000000D-01  1.0393613025026D-01  1.1079718766379D+00
63  6.2000000000000D-01  1.1861998667491D-01  1.0719952913665D+00
64  6.3000000000000D-01  1.3542160360750D-01  1.0353660229201D+00
65  6.4000000000000D-01  1.5436915216748D-01  9.9818200650696D-01
66  6.5000000000000D-01  1.7546997066252D-01  9.6053853186801D-01
67  6.6000000000000D-01  1.9871025543865D-01  9.2252793139610D-01
68  6.7000000000000D-01  2.2405502695781D-01  8.8423932269557D-01
69  6.8000000000000D-01  2.5144837195010D-01  8.4575840657166D-01
70  6.9000000000000D-01  2.8081395849226D-01  8.0716732057510D-01
71  7.0000000000000D-01  3.1205581688447D-01  7.6854454736200D-01
72  7.1000000000000D-01  3.4505937533279D-01  7.2996487628576D-01
73  7.2000000000000D-01  3.7969273570819D-01  6.9149941582032D-01
74  7.3000000000000D-01  4.1580817114571D-01  6.5321565364361D-01
75  7.4000000000000D-01  4.5324382396373D-01  6.1517756048664D-01
76  7.5000000000000D-01  4.9182557944355D-01  5.7744573320399D-01
77  7.6000000000000D-01  5.3136908840367D-01  5.4007757194272D-01
78  7.7000000000000D-01  5.7168190929734D-01  5.0312748579491D-01
79  7.8000000000000D-01  6.1256573878717D-01  4.6664712092039D-01
80  7.9000000000000D-01  6.5381869843324D-01  4.3068560482682D-01
81  8.0000000000000D-01  6.9523764429647D-01  3.9528980030080D-01
82  8.1000000000000D-01  7.3662046591731D-01  3.6050456239674D-01
83  8.2000000000000D-01  7.7776834129662D-01  3.2637299191579D-01
84  8.3000000000000D-01  8.1848791517359D-01  2.9293667894136D-01
85  8.4000000000000D-01  8.5859336906114D-01  2.6023593024153D-01
86  8.5000000000000D-01  8.9790835314773D-01  2.2830997469805D-01
87  8.6000000000000D-01  9.3626775228270D-01  1.9719714137190D-01
88  8.7000000000000D-01  9.7351926080107D-01  1.6693500535936D-01
89  8.8000000000000D-01  1.0095247438777D+00  1.3756049722375D-01
90  8.9000000000000D-01  1.0441613663876D+00  1.0910997249491D-01
91  9.0000000000000D-01  1.0773224738395D+00  8.1619238502582D-02
92  9.1000000000000D-01  1.1089182137957D+00  5.5123536637594D-02
93  9.2000000000000D-01  1.1388758902210D+00  2.9657479003177D-02
94  9.3000000000000D-01  1.1671400474091D+00  5.2549393222339D-03
95  9.4000000000000D-01  1.1936722843124D+00 -1.8051101136240D-02
96  9.5000000000000D-01  1.2184508044311D+00 -4.0228750921044D-02
97  9.6000000000000D-01  1.2414697105651D+00 -6.1247446478127D-02
98  9.7000000000000D-01  1.2627380578156D+00 -8.1078227501781D-02
99  9.8000000000000D-01  1.2822786821123D+00 -9.9694045293159D-02
100  9.9000000000000D-01  1.3001268251794D+00 -1.1707009909856D-01
101  1.0000000000000D+00  1.3163285801857D+00 -1.3318419470856D-01
102  1.0100000000000D+00  1.3309391853225D+00 -1.4801711898561D-01
103  1.0200000000000D+00  1.3440211950672D+00 -1.6155302348455D-01
104  1.0300000000000D+00  1.3556425610628D+00 -1.7377980990787D-01
105  1.0400000000000D+00  1.3658746561678D+00 -1.8468950984120D-01
106  1.0500000000000D+00  1.3747902763235D+00 -1.9427865103965D-01
107  1.0600000000000D+00  1.3824616554926D+00 -2.0254860247114D-01
108  1.0700000000000D+00  1.3889585288577D+00 -2.0950589041989D-01
109  1.0800000000000D+00  1.3943462791148D+00 -2.1516247809924D-01
110  1.0900000000000D+00  1.3986841994280D+00 -2.1953600160449D-01
111  1.1000000000000D+00  1.4020239050904D+00 -2.2264995545168D-01
112  1.1100000000000D+00  1.4044079236561D+00 -2.2453382155321D-01
113  1.1200000000000D+00  1.4058684907234D+00 -2.2522313614654D-01
114  1.1300000000000D+00  1.4064265756307D+00 -2.2475948993555D-01
115  1.1400000000000D+00  1.4060911573547D+00 -2.2319045769769D-01
116  1.1500000000000D+00  1.4048587671710D+00 -2.2056945453470D-01
117  1.1600000000000D+00  1.4027133104404D+00 -2.1695551698163D-01
118  1.1700000000000D+00  1.3996261757443D+00 -2.1241300820597D-01
119  1.1800000000000D+00  1.3955566340777D+00 -2.0701124787740D-01
120  1.1900000000000D+00  1.3904525261305D+00 -2.0082406842782D-01
121  1.2000000000000D+00  1.3842512320502D+00 -1.9392930030765D-01
122  1.2100000000000D+00  1.3768809116252D+00 -1.8640819041278D-01
123  1.2200000000000D+00  1.3682619984368D+00 -1.7834475892032D-01
124  1.2300000000000D+00  1.3583089274075D+00 -1.6982510076976D-01
125  1.2400000000000D+00  1.3469320710661D+00 -1.6093663902221D-01
126  1.2500000000000D+00  1.3340398540546D+00 -1.5176733873155D-01
127  1.2600000000000D+00  1.3195410131038D+00 -1.4240489051741D-01
128  1.2700000000000D+00  1.3033469669885D+00 -1.3293587368672D-01
129  1.2800000000000D+00  1.2853742556298D+00 -1.2344491004219D-01
130  1.2900000000000D+00  1.2655470075374D+00 -1.1401381950437D-01
131  1.3000000000000D+00  1.2437993923941D+00 -1.0472078925608D-01
132  1.3100000000000D+00  1.2200780132568D+00 -9.5639568668803D-02
133  1.3200000000000D+00  1.1943441944656D+00 -8.6838701869577D-02
134  1.3300000000000D+00  1.1665761189379D+00 -7.8380810397973D-02
135  1.3400000000000D+00  1.1367707717567D+00 -7.0321937577135D-02
136  1.3500000000000D+00  1.1049456472960D+00 -6.2710966139082D-02
137  1.3600000000000D+00  1.0711401772926D+00 -5.5589120599500D-02
138  1.3700000000000D+00  1.0354168465749D+00 -4.8989563510291D-02
139  1.3800000000000D+00  9.9786195688597D-01 -4.2937096315208D-02
140  1.3900000000000D+00  9.5858601174636D-01 -3.7447972355582D-02
141  1.4000000000000D+00  9.1772369973445D-01 -3.2529828399982D-02
142  1.4100000000000D+00  8.7543344712230D-01 -2.8181742777098D-02
143  1.4200000000000D+00  8.3189653884935D-01 -2.4394420903588D-02
144  1.4300000000000D+00  7.8731578825599D-01 -2.1150513814549D-02
145  1.4400000000000D+00  7.4191376053964D-01 -1.8425068954820D-02
146  1.4500000000000D+00  6.9593056161388D-01 -1.6186110574871D-02
147  1.4600000000000D+00  6.4962119015457D-01 -1.4395350942466D-02
148  1.4700000000000D+00  6.0325250120438D-01 -1.3009019862548D-02
149  1.4800000000000D+00  5.5709978316281D-01 -1.1978812658247D-02
150  1.4900000000000D+00  5.1144301273144D-01 -1.1252939688375D-02
151  1.5000000000000D+00  4.6656282264796D-01 -1.0777268443797D-02
152  1.5100000000000D+00  4.2273623841080D-01 -1.0496543681700D-02
153  1.5200000000000D+00  3.8023226928602D-01 -1.0355662293191D-02
154  1.5300000000000D+00  3.3930739464377D-01 -1.0300992888342D-02
155  1.5400000000000D+00  3.0020108193205D-01 -1.0281701713465D-02
156  1.5500000000000D+00  2.6313137129287D-01 -1.0251076971374D-02
157  1.5600000000000D+00  2.2829069357889D-01 -1.0167803729968D-02
158  1.5700000000000D+00  1.9584198210614D-01 -9.9971740618174D-03
159  1.5800000000000D+00  1.6591524525259D-01 -9.7121841678327D-03
160  1.5900000000000D+00  1.3860470546104D-01 -9.2944890846937D-03
161  1.6000000000000D+00  1.1396666353295D-01 -8.7351692041816D-03
162  1.6100000000000D+00  9.2018243039695D-02 -8.0352630034605D-03
163  1.6200000000000D+00  7.2737163711707D-02 -7.2060236957404D-03
164  1.6300000000000D+00  5.6062750076714D-02 -6.2688362772669D-03
165  1.6400000000000D+00  4.1898313494731D-02 -5.2547568558724D-03
166  1.6500000000000D+00  3.0115167363271D-02 -4.2035910831820D-03
167  1.6600000000000D+00  2.0564212014496D-02 -3.1635538007991D-03
168  1.6700000000000D+00  1.3056968806845D-02 -2.1842891517384D-03
169  1.6800000000000D+00  7.3888521326083D-03 -1.3161468240516D-03
170  1.6900000000000D+00  3.4699483728747D-03 -6.3110666147688D-04
171  1.7000000000000D+00  1.1929241850509D-03 -1.8699720247804D-04
172  1.7100000000000D+00  1.7175495733030D-04  2.5784851835195D-05
173  1.7200000000000D+00 -9.3215080013025D-05  6.1339881470126D-05
174  1.7300000000000D+00 -3.1009640712185D-05  1.4809106485050D-05
175  1.7400000000000D+00  3.3483582581266D-05 -1.3774809302223D-05
176  1.7500000000000D+00  1.6512449040048D-05 -6.4727843784353D-06
177  1.7600000000000D+00 -5.5758139102419D-06  2.3930256334512D-06
178  1.7700000000000D+00 -3.9753020934076D-06  1.6421053798789D-06
179  1.7800000000000D+00 -1.3926985410009D-07 -1.0252324000461D-07
180  1.7900000000000D+00 -1.3341572064266D-07 -9.8213730718820D-08
181  1.8000000000000D+00  0.0000000000000D+00  0.0000000000000D+00
182  1.8100000000000D+00  0.0000000000000D+00  0.0000000000000D+00
183  1.8200000000000D+00  0.0000000000000D+00  0.0000000000000D+00
184  1.8300000000000D+00  0.0000000000000D+00  0.0000000000000D+00
185  1.8400000000000D+00  0.0000000000000D+00  0.0000000000000D+00
186  1.8500000000000D+00  0.0000000000000D+00  0.0000000000000D+00
187  1.8600000000000D+00  0.0000000000000D+00  0.0000000000000D+00
188  1.8700000000000D+00  0.0000000000000D+00  0.0000000000000D+00
189  1.8800000000000D+00  0.0000000000000D+00  0.0000000000000D+00
190  1.8900000000000D+00  0.0000000000000D+00  0.0000000000000D+00
191  1.9000000000000D+00  0.0000000000000D+00  0.0000000000000D+00
192  1.9100000000000D+00  0.0000000000000D+00  0.0000000000000D+00
193  1.9200000000000D+00  0.0000000000000D+00  0.0000000000000D+00
194  1.9300000000000D+00  0.0000000000000D+00  0.0000000000000D+00
195  1.9400000000000D+00  0.0000000000000D+00  0.0000000000000D+00
196  1.9500000000000D+00  0.0000000000000D+00  0.0000000000000D+00
197  1.9600000000000D+00  0.0000000000000D+00  0.0000000000000D+00
198  1.9700000000000D+00  0.0000000000000D+00  0.0000000000000D+00
199  1.9800000000000D+00  0.0000000000000D+00  0.0000000000000D+00
200  1.9900000000000D+00  0.0000000000000D+00  0.0000000000000D+00
201  2.0000000000000D+00  0.0000000000000D+00  0.0000000000000D+00
202  2.0100000000000D+00  0.0000000000000D+00  0.0000000000000D+00
203  2.0200000000000D+00  0.0000000000000D+00  0.0000000000000D+00
204  2.0300000000000D+00  0.0000000000000D+00  0.0000000000000D+00
205  2.0400000000000D+00  0.0000000000000D+00  0.0000000000000D+00
206  2.0500000000000D+00  0.0000000000000D+00  0.0000000000000D+00
207  2.0600000000000D+00  0.0000000000000D+00  0.0000000000000D+00
208  2.0700000000000D+00  0.0000000000000D+00  0.0000000000000D+00
209  2.0800000000000D+00  0.0000000000000D+00  0.0000000000000D+00
210  2.0900000000000D+00  0.0000000000000D+00  0.0000000000000D+00
211  2.1000000000000D+00  0.0000000000000D+00  0.0000000000000D+00
212  2.1100000000000D+00  0.0000000000000D+00  0.0000000000000D+00
213  2.1200000000000D+00  0.0000000000000D+00  0.0000000000000D+00
214  2.1300000000000D+00  0.0000000000000D+00  0.0000000000000D+00
215  2.1400000000000D+00  0.0000000000000D+00  0.0000000000000D+00
216  2.1500000000000D+00  0.0000000000000D+00  0.0000000000000D+00
217  2.1600000000000D+00  0.0000000000000D+00  0.0000000000000D+00
218  2.1700000000000D+00  0.0000000000000D+00  0.0000000000000D+00
219  2.1800000000000D+00  0.0000000000000D+00  0.0000000000000D+00
220  2.1900000000000D+00  0.0000000000000D+00  0.0000000000000D+00
221  2.2000000000000D+00  0.0000000000000D+00  0.0000000000000D+00
222  2.2100000000000D+00  0.0000000000000D+00  0.0000000000000D+00
223  2.2200000000000D+00  0.0000000000000D+00  0.0000000000000D+00
224  2.2300000000000D+00  0.0000000000000D+00  0.0000000000000D+00
225  2.2400000000000D+00  0.0000000000000D+00  0.0000000000000D+00
226  2.2500000000000D+00  0.0000000000000D+00  0.0000000000000D+00
227  2.2600000000000D+00  0.0000000000000D+00  0.0000000000000D+00
228  2.2700000000000D+00  0.0000000000000D+00  0.0000000000000D+00
229  2.2800000000000D+00  0.0000000000000D+00  0.0000000000000D+00
230  2.2900000000000D+00  0.0000000000000D+00  0.0000000000000D+00
231  2.3000000000000D+00  0.0000000000000D+00  0.0000000000000D+00
232  2.3100000000000D+00  0.0000000000000D+00  0.0000000000000D+00
233  2.3200000000000D+00  0.0000000000000D+00  0.0000000000000D+00
234  2.3300000000000D+00  0.0000000000000D+00  0.0000000000000D+00
235  2.3400000000000D+00  0.0000000000000D+00  0.0000000000000D+00
236  2.3500000000000D+00  0.0000000000000D+00  0.0000000000000D+00
237  2.3600000000000D+00  0.0000000000000D+00  0.0000000000000D+00
238  2.3700000000000D+00  0.0000000000000D+00  0.0000000000000D+00
239  2.3800000000000D+00  0.0000000000000D+00  0.0000000000000D+00
240  2.3900000000000D+00  0.0000000000000D+00  0.0000000000000D+00
241  2.4000000000000D+00  0.0000000000000D+00  0.0000000000000D+00
242  2.4100000000000D+00  0.0000000000000D+00  0.0000000000000D+00
243  2.4200000000000D+00  0.0000000000000D+00  0.0000000000000D+00
244  2.4300000000000D+00  0.0000000000000D+00  0.0000000000000D+00
245  2.4400000000000D+00  0.0000000000000D+00  0.0000000000000D+00
246  2.4500000000000D+00  0.0000000000000D+00  0.0000000000000D+00
247  2.4600000000000D+00  0.0000000000000D+00  0.0000000000000D+00
248  2.4700000000000D+00  0.0000000000000D+00  0.0000000000000D+00
249  2.4800000000000D+00  0.0000000000000D+00  0.0000000000000D+00
250  2.4900000000000D+00  0.0000000000000D+00  0.0000000000000D+00
251  2.5000000000000D+00  0.0000000000000D+00  0.0000000000000D+00
252  2.5100000000000D+00  0.0000000000000D+00  0.0000000000000D+00
253  2.5200000000000D+00  0.0000000000000D+00  0.0000000000000D+00
254  2.5300000000000D+00  0.0000000000000D+00  0.0000000000000D+00
255  2.5400000000000D+00  0.0000000000000D+00  0.0000000000000D+00
256  2.5500000000000D+00  0.0000000000000D+00  0.0000000000000D+00
257  2.5600000000000D+00  0.0000000000000D+00  0.0000000000000D+00
258  2.5700000000000D+00  0.0000000000000D+00  0.0000000000000D+00
259  2.5800000000000D+00  0.0000000000000D+00  0.0000000000000D+00
260  2.5900000000000D+00  0.0000000000000D+00  0.0000000000000D+00
261  2.6000000000000D+00  0.0000000000000D+00  0.0000000000000D+00
262  2.6100000000000D+00  0.0000000000000D+00  0.0000000000000D+00
263  2.6200000000000D+00  0.0000000000000D+00  0.0000000000000D+00
264  2.6300000000000D+00  0.0000000000000D+00  0.0000000000000D+00
265  2.6400000000000D+00  0.0000000000000D+00  0.0000000000000D+00
266  2.6500000000000D+00  0.0000000000000D+00  0.0000000000000D+00
267  2.6600000000000D+00  0.0000000000000D+00  0.0000000000000D+00
268  2.6700000000000D+00  0.0000000000000D+00  0.0000000000000D+00
269  2.6800000000000D+00  0.0000000000000D+00  0.0000000000000D+00
270  2.6900000000000D+00  0.0000000000000D+00  0.0000000000000D+00
271  2.7000000000000D+00  0.0000000000000D+00  0.0000000000000D+00
272  2.7100000000000D+00  0.0000000000000D+00  0.0000000000000D+00
273  2.7200000000000D+00  0.0000000000000D+00  0.0000000000000D+00
274  2.7300000000000D+00  0.0000000000000D+00  0.0000000000000D+00
275  2.7400000000000D+00  0.0000000000000D+00  0.0000000000000D+00
276  2.7500000000000D+00  0.0000000000000D+00  0.0000000000000D+00
277  2.7600000000000D+00  0.0000000000000D+00  0.0000000000000D+00
278  2.7700000000000D+00  0.0000000000000D+00  0.0000000000000D+00
279  2.7800000000000D+00  0.0000000000000D+00  0.0000000000000D+00
280  2.7900000000000D+00  0.0000000000000D+00  0.0000000000000D+00
281  2.8000000000000D+00  0.0000000000000D+00  0.0000000000000D+00
282  2.8100000000000D+00  0.0000000000000D+00  0.0000000000000D+00
283  2.8200000000000D+00  0.0000000000000D+00  0.0000000000000D+00
284  2.8300000000000D+00  0.0000000000000D+00  0.0000000000000D+00
285  2.8400000000000D+00  0.0000000000000D+00  0.0000000000000D+00
286  2.8500000000000D+00  0.0000000000000D+00  0.0000000000000D+00
287  2.8600000000000D+00  0.0000000000000D+00  0.0000000000000D+00
288  2.8700000000000D+00  0.0000000000000D+00  0.0000000000000D+00
289  2.8800000000000D+00  0.0000000000000D+00  0.0000000000000D+00
290  2.8900000000000D+00  0.0000000000000D+00  0.0000000000000D+00
291  2.9000000000000D+00  0.0000000000000D+00  0.0000000000000D+00
292  2.9100000000000D+00  0.0000000000000D+00  0.0000000000000D+00
293  2.9200000000000D+00  0.0000000000000D+00  0.0000000000000D+00
294  2.9300000000000D+00  0.0000000000000D+00  0.0000000000000D+00
295  2.9400000000000D+00  0.0000000000000D+00  0.0000000000000D+00
296  2.9500000000000D+00  0.0000000000000D+00  0.0000000000000D+00
297  2.9600000000000D+00  0.0000000000000D+00  0.0000000000000D+00
298  2.9700000000000D+00  0.0000000000000D+00  0.0000000000000D+00
299  2.9800000000000D+00  0.0000000000000D+00  0.0000000000000D+00
300  2.9900000000000D+00  0.0000000000000D+00  0.0000000000000D+00
301  3.0000000000000D+00  0.0000000000000D+00  0.0000000000000D+00
302  3.0100000000000D+00  0.0000000000000D+00  0.0000000000000D+00
303  3.0200000000000D+00  0.0000000000000D+00  0.0000000000000D+00
304  3.0300000000000D+00  0.0000000000000D+00  0.0000000000000D+00
305  3.0400000000000D+00  0.0000000000000D+00  0.0000000000000D+00
306  3.0500000000000D+00  0.0000000000000D+00  0.0000000000000D+00
307  3.0600000000000D+00  0.0000000000000D+00  0.0000000000000D+00
308  3.0700000000000D+00  0.0000000000000D+00  0.0000000000000D+00
309  3.0800000000000D+00  0.0000000000000D+00  0.0000000000000D+00
310  3.0900000000000D+00  0.0000000000000D+00  0.0000000000000D+00
311  3.1000000000000D+00  0.0000000000000D+00  0.0000000000000D+00
312  3.1100000000000D+00  0.0000000000000D+00  0.0000000000000D+00
313  3.1200000000000D+00  0.0000000000000D+00  0.0000000000000D+00
314  3.1300000000000D+00  0.0000000000000D+00  0.0000000000000D+00
315  3.1400000000000D+00  0.0000000000000D+00  0.0000000000000D+00
316  3.1500000000000D+00  0.0000000000000D+00  0.0000000000000D+00
317  3.1600000000000D+00  0.0000000000000D+00  0.0000000000000D+00
318  3.1700000000000D+00  0.0000000000000D+00  0.0000000000000D+00
319  3.1800000000000D+00  0.0000000000000D+00  0.0000000000000D+00
320  3.1900000000000D+00  0.0000000000000D+00  0.0000000000000D+00
321  3.2000000000000D+00  0.0000000000000D+00  0.0000000000000D+00
322  3.2100000000000D+00  0.0000000000000D+00  0.0000000000000D+00
323  3.2200000000000D+00  0.0000000000000D+00  0.0000000000000D+00
324  3.2300000000000D+00  0.0000000000000D+00  0.0000000000000D+00
325  3.2400000000000D+00  0.0000000000000D+00  0.0000000000000D+00
326  3.2500000000000D+00  0.0000000000000D+00  0.0000000000000D+00
327  3.2600000000000D+00  0.0000000000000D+00  0.0000000000000D+00
328  3.2700000000000D+00  0.0000000000000D+00  0.0000000000000D+00
329  3.2800000000000D+00  0.0000000000000D+00  0.0000000000000D+00
330  3.2900000000000D+00  0.0000000000000D+00  0.0000000000000D+00
331  3.3000000000000D+00  0.0000000000000D+00  0.0000000000000D+00
332  3.3100000000000D+00  0.0000000000000D+00  0.0000000000000D+00
333  3.3200000000000D+00  0.0000000000000D+00  0.0000000000000D+00
334  3.3300000000000D+00  0.0000000000000D+00  0.0000000000000D+00
335  3.3400000000000D+00  0.0000000000000D+00  0.0000000000000D+00
336  3.3500000000000D+00  0.0000000000000D+00  0.0000000000000D+00
337  3.3600000000000D+00  0.0000000000000D+00  0.0000000000000D+00
338  3.3700000000000D+00  0.0000000000000D+00  0.0000000000000D+00
339  3.3800000000000D+00  0.0000000000000D+00  0.0000000000000D+00
340  3.3900000000000D+00  0.0000000000000D+00  0.0000000000000D+00
341  3.4000000000000D+00  0.0000000000000D+00  0.0000000000000D+00
342  3.4100000000000D+00  0.0000000000000D+00  0.0000000000000D+00
343  3.4200000000000D+00  0.0000000000000D+00  0.0000000000000D+00
344  3.4300000000000D+00  0.0000000000000D+00  0.0000000000000D+00
345  3.4400000000000D+00  0.0000000000000D+00  0.0000000000000D+00
346  3.4500000000000D+00  0.0000000000000D+00  0.0000000000000D+00
347  3.4600000000000D+00  0.0000000000000D+00  0.0000000000000D+00
348  3.4700000000000D+00  0.0000000000000D+00  0.0000000000000D+00
349  3.4800000000000D+00  0.0000000000000D+00  0.0000000000000D+00
350  3.4900000000000D+00  0.0000000000000D+00  0.0000000000000D+00
351  3.5000000000000D+00  0.0000000000000D+00  0.0000000000000D+00
352  3.5100000000000D+00  0.0000000000000D+00  0.0000000000000D+00
353  3.5200000000000D+00  0.0000000000000D+00  0.0000000000000D+00
354  3.5300000000000D+00  0.0000000000000D+00  0.0000000000000D+00
355  3.5400000000000D+00  0.0000000000000D+00  0.0000000000000D+00
356  3.5500000000000D+00  0.0000000000000D+00  0.0000000000000D+00
357  3.5600000000000D+00  0.0000000000000D+00  0.0000000000000D+00
358  3.5700000000000D+00  0.0000000000000D+00  0.0000000000000D+00
359  3.5800000000000D+00  0.0000000000000D+00  0.0000000000000D+00
360  3.5900000000000D+00  0.0000000000000D+00  0.0000000000000D+00
361  3.6000000000000D+00  0.0000000000000D+00  0.0000000000000D+00
362  3.6100000000000D+00  0.0000000000000D+00  0.0000000000000D+00
363  3.6200000000000D+00  0.0000000000000D+00  0.0000000000000D+00
364  3.6300000000000D+00  0.0000000000000D+00  0.0000000000000D+00
365  3.6400000000000D+00  0.0000000000000D+00  0.0000000000000D+00
366  3.6500000000000D+00  0.0000000000000D+00  0.0000000000000D+00
367  3.6600000000000D+00  0.0000000000000D+00  0.0000000000000D+00
368  3.6700000000000D+00  0.0000000000000D+00  0.0000000000000D+00
369  3.6800000000000D+00  0.0000000000000D+00  0.0000000000000D+00
370  3.6900000000000D+00  0.0000000000000D+00  0.0000000000000D+00
371  3.7000000000000D+00  0.0000000000000D+00  0.0000000000000D+00
372  3.7100000000000D+00  0.0000000000000D+00  0.0000000000000D+00
373  3.7200000000000D+00  0.0000000000000D+00  0.0000000000000D+00
374  3.7300000000000D+00  0.0000000000000D+00  0.0000000000000D+00
375  3.7400000000000D+00  0.0000000000000D+00  0.0000000000000D+00
376  3.7500000000000D+00  0.0000000000000D+00  0.0000000000000D+00
377  3.7600000000000D+00  0.0000000000000D+00  0.0000000000000D+00
378  3.7700000000000D+00  0.0000000000000D+00  0.0000000000000D+00
379  3.7800000000000D+00  0.0000000000000D+00  0.0000000000000D+00
380  3.7900000000000D+00  0.0000000000000D+00  0.0000000000000D+00
381  3.8000000000000D+00  0.0000000000000D+00  0.0000000000000D+00
382  3.8100000000000D+00  0.0000000000000D+00  0.0000000000000D+00
383  3.8200000000000D+00  0.0000000000000D+00  0.0000000000000D+00
384  3.8300000000000D+00  0.0000000000000D+00  0.0000000000000D+00
385  3.8400000000000D+00  0.0000000000000D+00  0.0000000000000D+00
386  3.8500000000000D+00  0.0000000000000D+00  0.0000000000000D+00
387  3.8600000000000D+00  0.0000000000000D+00  0.0000000000000D+00
388  3.8700000000000D+00  0.0000000000000D+00  0.0000000000000D+00
389  3.8800000000000D+00  0.0000000000000D+00  0.0000000000000D+00
390  3.8900000000000D+00  0.0000000000000D+00  0.0000000000000D+00
391  3.9000000000000D+00  0.0000000000000D+00  0.0000000000000D+00
392  3.9100000000000D+00  0.0000000000000D+00  0.0000000000000D+00
393  3.9200000000000D+00  0.0000000000000D+00  0.0000000000000D+00
394  3.9300000000000D+00  0.0000000000000D+00  0.0000000000000D+00
395  3.9400000000000D+00  0.0000000000000D+00  0.0000000000000D+00
396  3.9500000000000D+00  0.0000000000000D+00  0.0000000000000D+00
397  3.9600000000000D+00  0.0000000000000D+00  0.0000000000000D+00
398  3.9700000000000D+00  0.0000000000000D+00  0.0000000000000D+00
399  3.9800000000000D+00  0.0000000000000D+00  0.0000000000000D+00
400  3.9900000000000D+00  0.0000000000000D+00  0.0000000000000D+00
401  4.0000000000000D+00  0.0000000000000D+00  0.0000000000000D+00
402  4.0100000000000D+00  0.0000000000000D+00  0.0000000000000D+00
403  4.0200000000000D+00  0.0000000000000D+00  0.0000000000000D+00
404  4.0300000000000D+00  0.0000000000000D+00  0.0000000000000D+00
405  4.0400000000000D+00  0.0000000000000D+00  0.0000000000000D+00
406  4.0500000000000D+00  0.0000000000000D+00  0.0000000000000D+00
407  4.0600000000000D+00  0.0000000000000D+00  0.0000000000000D+00
408  4.0700000000000D+00  0.0000000000000D+00  0.0000000000000D+00
409  4.0800000000000D+00  0.0000000000000D+00  0.0000000000000D+00
410  4.0900000000000D+00  0.0000000000000D+00  0.0000000000000D+00
411  4.1000000000000D+00  0.0000000000000D+00  0.0000000000000D+00
412  4.1100000000000D+00  0.0000000000000D+00  0.0000000000000D+00
413  4.1200000000000D+00  0.0000000000000D+00  0.0000000000000D+00
414  4.1300000000000D+00  0.0000000000000D+00  0.0000000000000D+00
415  4.1400000000000D+00  0.0000000000000D+00  0.0000000000000D+00
416  4.1500000000000D+00  0.0000000000000D+00  0.0000000000000D+00
417  4.1600000000000D+00  0.0000000000000D+00  0.0000000000000D+00
418  4.1700000000000D+00  0.0000000000000D+00  0.0000000000000D+00
419  4.1800000000000D+00  0.0000000000000D+00  0.0000000000000D+00
420  4.1900000000000D+00  0.0000000000000D+00  0.0000000000000D+00
421  4.2000000000000D+00  0.0000000000000D+00  0.0000000000000D+00
422  4.2100000000000D+00  0.0000000000000D+00  0.0000000000000D+00
423  4.2200000000000D+00  0.0000000000000D+00  0.0000000000000D+00
424  4.2300000000000D+00  0.0000000000000D+00  0.0000000000000D+00
425  4.2400000000000D+00  0.0000000000000D+00  0.0000000000000D+00
426  4.2500000000000D+00  0.0000000000000D+00  0.0000000000000D+00
427  4.2600000000000D+00  0.0000000000000D+00  0.0000000000000D+00
428  4.2700000000000D+00  0.0000000000000D+00  0.0000000000000D+00
429  4.2800000000000D+00  0.0000000000000D+00  0.0000000000000D+00
430  4.2900000000000D+00  0.0000000000000D+00  0.0000000000000D+00
431  4.3000000000000D+00  0.0000000000000D+00  0.0000000000000D+00
432  4.3100000000000D+00  0.0000000000000D+00  0.0000000000000D+00
433  4.3200000000000D+00  0.0000000000000D+00  0.0000000000000D+00
434  4.3300000000000D+00  0.0000000000000D+00  0.0000000000000D+00
435  4.3400000000000D+00  0.0000000000000D+00  0.0000000000000D+00
436  4.3500000000000D+00  0.0000000000000D+00  0.0000000000000D+00
437  4.3600000000000D+00  0.0000000000000D+00  0.0000000000000D+00
438  4.3700000000000D+00  0.0000000000000D+00  0.0000000000000D+00
439  4.3800000000000D+00  0.0000000000000D+00  0.0000000000000D+00
440  4.3900000000000D+00  0.0000000000000D+00  0.0000000000000D+00
441  4.4000000000000D+00  0.0000000000000D+00  0.0000000000000D+00
442  4.4100000000000D+00  0.0000000000000D+00  0.0000000000000D+00
443  4.4200000000000D+00  0.0000000000000D+00  0.0000000000000D+00