Rh    ONCVPSP-3.3.0  r_core=   1.40787   1.40787   1.35838
45.0000     17.0000      180430    zatom,zion,pspd
8 -116133   2     4   600     0    pspcod,pspxc,lmax,lloc,mmax,r2well
5.99000000  7.00000000  0.00000000    rchrg fchrg qchrg
2     4     4     0    nproj
3     1           extension_switch
4     4     0    nprojso
0                         1.4946603740724D+00  1.6261407788136D+01
1  0.0000000000000D+00 -4.0281195046177D-10  1.7360568538294D-10
2  1.0000000000000D-02 -3.6055163674107D-02  7.9212505537549D-02
3  2.0000000000000D-02 -7.1946359092924D-02  1.5825625224896D-01
4  3.0000000000000D-02 -1.0750971696190D-01  2.3696269846466D-01
5  4.0000000000000D-02 -1.4258157254242D-01  3.1516373944747D-01
6  5.0000000000000D-02 -1.7699858441226D-01  3.9269193236248D-01
7  6.0000000000000D-02 -2.1059787271600D-01  4.6938072892655D-01
8  7.0000000000000D-02 -2.4321718292354D-01  5.4506471809142D-01
9  8.0000000000000D-02 -2.7469508071262D-01  6.1957988094041D-01
10  9.0000000000000D-02 -3.0487118309588D-01  6.9276385976594D-01
11  1.0000000000000D-01 -3.3358643033282D-01  7.6445624304419D-01
12  1.1000000000000D-01 -3.6068340250651D-01  8.3449886773941D-01
13  1.2000000000000D-01 -3.8600668391330D-01  9.0273614005431D-01
14  1.3000000000000D-01 -4.0940327761915D-01  9.6901537540090D-01
15  1.4000000000000D-01 -4.3072307168759D-01  1.0331871580002D+00
16  1.5000000000000D-01 -4.4981935769277D-01  1.0951057201351D+00
17  1.6000000000000D-01 -4.6654940120597D-01  1.1546293406812D+00
18  1.7000000000000D-01 -4.8077506299758D-01  1.2116207621337D+00
19  1.8000000000000D-01 -4.9236346873982D-01  1.2659476249353D+00
20  1.9000000000000D-01 -5.0118772403995D-01  1.3174829174968D+00
21  2.0000000000000D-01 -5.0712767069178D-01  1.3661054398996D+00
22  2.1000000000000D-01 -5.1007067911654D-01  1.4117002788691D+00
23  2.2000000000000D-01 -5.0991247108370D-01  1.4541592912339D+00
24  2.3000000000000D-01 -5.0655796597073D-01  1.4933815927219D+00
25  2.4000000000000D-01 -4.9992214304824D-01  1.5292740486150D+00
26  2.5000000000000D-01 -4.8993091157347D-01  1.5617517624800D+00
27  2.6000000000000D-01 -4.7652197985253D-01  1.5907385589240D+00
28  2.7000000000000D-01 -4.5964571389706D-01  1.6161674560926D+00
29  2.8000000000000D-01 -4.3926597586314D-01  1.6379811234431D+00
30  2.9000000000000D-01 -4.1536093212777D-01  1.6561323201770D+00
31  3.0000000000000D-01 -3.8792382063560D-01  1.6705843096264D+00
32  3.1000000000000D-01 -3.5696366704176D-01  1.6813112448394D+00
33  3.2000000000000D-01 -3.2250593919022D-01  1.6882985206188D+00
34  3.3000000000000D-01 -2.8459312960268D-01  1.6915430873271D+00
35  3.4000000000000D-01 -2.4328525591248D-01  1.6910537218860D+00
36  3.5000000000000D-01 -1.9866026956202D-01  1.6868512515642D+00
37  3.6000000000000D-01 -1.5081436358863D-01  1.6789687263704D+00
38  3.7000000000000D-01 -9.9862170949964D-02  1.6674515361416D+00
39  3.8000000000000D-01 -4.5936845583488D-02  1.6523574687394D+00
40  3.9000000000000D-01  1.0809980752273D-02  1.6337567061428D+00
41  4.0000000000000D-01  7.0208371848816D-02  1.6117317556427D+00
42  4.1000000000000D-01  1.3207039557167D-01  1.5863773138044D+00
43  4.2000000000000D-01  1.9619057133476D-01  1.5578000613672D+00
44  4.3000000000000D-01  2.6234645910617D-01  1.5261183877804D+00
45  4.4000000000000D-01  3.3029939123907D-01  1.4914620446434D+00
46  4.5000000000000D-01  3.9979534708503D-01  1.4539717279041D+00
47  4.6000000000000D-01  4.7056596896628D-01  1.4137985892786D+00
48  4.7000000000000D-01  5.4232971667687D-01  1.3711036779773D+00
49  4.8000000000000D-01  6.1479315626280D-01  1.3260573144488D+00
50  4.9000000000000D-01  6.8765237741212D-01  1.2788383984893D+00
51  5.0000000000000D-01  7.6059453238418D-01  1.2296336546814D+00
52  5.1000000000000D-01  8.3329948803587D-01  1.1786368187482D+00
53  5.2000000000000D-01  9.0544158117745D-01  1.1260477689994D+00
54  5.3000000000000D-01  9.7669146622726D-01  1.0720716076188D+00
55  5.4000000000000D-01  1.0467180429460D+00  1.0169176970846D+00
56  5.5000000000000D-01  1.1151904509313D+00  9.6079865751794D-01
57  5.6000000000000D-01  1.1817801165584D+00  9.0392933121802D-01
58  5.7000000000000D-01  1.2461628371688D+00  8.4652572105834D-01
59  5.8000000000000D-01  1.3080208865556D+00  7.8880390978046D-01
60  5.9000000000000D-01  1.3670451251756D+00  7.3097896752862D-01
61  6.0000000000000D-01  1.4229370980450D+00  6.7326385521309D-01
62  6.1000000000000D-01  1.4754111029583D+00  6.1586833147085D-01
63  6.2000000000000D-01  1.5241962115124D+00  5.5899787110493D-01
64  6.3000000000000D-01  1.5690382254243D+00  5.0285260292754D-01
65  6.4000000000000D-01  1.6097015508060D+00  4.4762627490368D-01
66  6.5000000000000D-01  1.6459709734075D+00  3.9350525439232D-01
67  6.6000000000000D-01  1.6776533183538D+00  3.4066757110846D-01
68  6.7000000000000D-01  1.7045789785827D+00  2.8928201018663D-01
69  6.8000000000000D-01  1.7266032970428D+00  2.3950726240939D-01
70  6.9000000000000D-01  1.7436077887114D+00  1.9149113828178D-01
71  7.0000000000000D-01  1.7555011896588D+00  1.4536985218138D-01
72  7.1000000000000D-01  1.7622203216745D+00  1.0126738230399D-01
73  7.2000000000000D-01  1.7637307624171D+00  5.9294911550524D-02
74  7.3000000000000D-01  1.7600273125955D+00  1.9550353878744D-02
75  7.4000000000000D-01  1.7511342533519D+00 -1.7882030030704D-02
76  7.5000000000000D-01  1.7371053887725D+00 -5.2931924660384D-02
77  7.6000000000000D-01  1.7180238702782D+00 -8.5543156711055D-02
78  7.7000000000000D-01  1.6940018015362D+00 -1.1567379572419D-01
79  7.8000000000000D-01  1.6651796244692D+00 -1.4329615747434D-01
80  7.9000000000000D-01  1.6317252888844D+00 -1.6839671014958D-01
81  8.0000000000000D-01  1.5938332102066D+00 -1.9097588416357D-01
82  8.1000000000000D-01  1.5517230217387D+00 -2.1104778726502D-01
83  8.2000000000000D-01  1.5056381297778D+00 -2.2863982742444D-01
84  8.3000000000000D-01  1.4558440817683D+00 -2.4379224677383D-01
85  8.4000000000000D-01  1.4026267594475D+00 -2.5655757064637D-01
86  8.5000000000000D-01  1.3462904106236D+00 -2.6699997650074D-01
87  8.6000000000000D-01  1.2871555347985D+00 -2.7519458821201D-01
88  8.7000000000000D-01  1.2255566392919D+00 -2.8122670186058D-01
89  8.8000000000000D-01  1.1618398838212D+00 -2.8519094974511D-01
90  8.9000000000000D-01  1.0963606326325D+00 -2.8719040987931D-01
91  9.0000000000000D-01  1.0294809342445D+00 -2.8733566869926D-01
92  9.1000000000000D-01  9.6156694964702D-01 -2.8574384510305D-01
93  9.2000000000000D-01  8.9298635038390D-01 -2.8253758426310D-01
94  9.3000000000000D-01  8.2410570833085D-01 -2.7784402988984D-01
95  9.4000000000000D-01  7.5528789915203D-01 -2.7179378378094D-01
96  9.5000000000000D-01  6.8688954137657D-01 -2.6451986156020D-01
97  9.6000000000000D-01  6.1925849278039D-01 -2.5615665349447D-01
98  9.7000000000000D-01  5.5273142527153D-01 -2.4683889916959D-01
99  9.8000000000000D-01  4.8763149881132D-01 -2.3670068462370D-01
100  9.9000000000000D-01  4.2426615398214D-01 -2.2587447025436D-01
101  1.0000000000000D+00  3.6292504171950D-01 -2.1449015745993D-01
102  1.0100000000000D+00  3.0387810742973D-01 -2.0267420153844D-01
103  1.0200000000000D+00  2.4737384523420D-01 -1.9054877785245D-01
104  1.0300000000000D+00  1.9363773643602D-01 -1.7823100768592D-01
105  1.0400000000000D+00  1.4287088443790D-01 -1.6583224954529D-01
106  1.0500000000000D+00  9.5248856561653D-02 -1.5345746100870D-01
107  1.0600000000000D+00  5.0920740931415D-02 -1.4120463538266D-01
108  1.0700000000000D+00  1.0008424572898D-02 -1.2916431667565D-01
109  1.0800000000000D+00 -2.7393903405628D-02 -1.1741919553947D-01
110  1.0900000000000D+00 -6.1220022136516D-02 -1.0604378789959D-01
111  1.1000000000000D+00 -9.1431723352018D-02 -9.5104197254814D-02
112  1.1100000000000D+00 -1.1801863319106D-01 -8.4657960521477D-02
113  1.1200000000000D+00 -1.4099781681711D-01 -7.4753976541490D-02
114  1.1300000000000D+00 -1.6041317381482D-01 -6.5432515360706D-02
115  1.1400000000000D+00 -1.7633463420689D-01 -5.6725305651051D-02
116  1.1500000000000D+00 -1.8885716749397D-01 -4.8655696641488D-02
117  1.1600000000000D+00 -1.9809961900771D-01 -4.1238890171432D-02
118  1.1700000000000D+00 -2.0420338997854D-01 -3.4482237632359D-02
119  1.1800000000000D+00 -2.0733097904454D-01 -2.8385596031103D-02
120  1.1900000000000D+00 -2.0766440523437D-01 -2.2941736466819D-02
121  1.2000000000000D+00 -2.0540353352971D-01 -1.8136797862180D-02
122  1.2100000000000D+00 -2.0076432538250D-01 -1.3950778251853D-02
123  1.2200000000000D+00 -1.9397703761967D-01 -1.0358055484811D-02
124  1.2300000000000D+00 -1.8528439425258D-01 -7.3279287051662D-03
125  1.2400000000000D+00 -1.7493975595043D-01 -4.8251718260450D-03
126  1.2500000000000D+00 -1.6320531247225D-01 -2.8105899849257D-03
127  1.2600000000000D+00 -1.5035032364016D-01 -1.2415697397808D-03
128  1.2700000000000D+00 -1.3664944568228D-01 -7.2611010988495D-05
129  1.2800000000000D+00 -1.2238108985335D-01  7.4414896029324D-04
130  1.2900000000000D+00 -1.0782613234461D-01  1.2585021263085D-03
131  1.3000000000000D+00 -9.3265814048226D-02  1.5215381950991D-03
132  1.3100000000000D+00 -7.8982922111140D-02  1.5858428375352D-03
133  1.3200000000000D+00 -6.5256734785896D-02  1.5041493557477D-03
134  1.3300000000000D+00 -5.2352350931367D-02  1.3266080421934D-03
135  1.3400000000000D+00 -4.0509753935723D-02  1.0978937608182D-03
136  1.3500000000000D+00 -2.9936189329993D-02  8.5512846647606D-04
137  1.3600000000000D+00 -2.0808475315902D-02  6.2791956346502D-04
138  1.3700000000000D+00 -1.3267567210777D-02  4.3754142605212D-04
139  1.3800000000000D+00 -7.3758697046519D-03  2.9347191564371D-04
140  1.3900000000000D+00 -3.3032236228578D-03  2.0692311855391D-04
141  1.4000000000000D+00 -1.1753011111681D-03  1.8312687442426D-04
142  1.4100000000000D+00 -3.4406530491718D-04  1.4154384396907D-04
143  1.4200000000000D+00 -4.8856179545652D-05  4.1242190932441D-05
144  1.4300000000000D+00  1.1343370687600D-05 -1.5263329222191D-05
145  1.4400000000000D+00  1.8810725799413D-06 -4.3558944295160D-06
146  1.4500000000000D+00 -4.0533915760016D-06  3.6776230257605D-06
147  1.4600000000000D+00  2.3401482082510D-07 -8.0041224860543D-08
148  1.4700000000000D+00  1.1890760951114D-06 -4.0670546749789D-07
149  1.4800000000000D+00  0.0000000000000D+00  0.0000000000000D+00
150  1.4900000000000D+00  0.0000000000000D+00  0.0000000000000D+00
151  1.5000000000000D+00  0.0000000000000D+00  0.0000000000000D+00
152  1.5100000000000D+00  0.0000000000000D+00  0.0000000000000D+00
153  1.5200000000000D+00  0.0000000000000D+00  0.0000000000000D+00
154  1.5300000000000D+00  0.0000000000000D+00  0.0000000000000D+00
155  1.5400000000000D+00  0.0000000000000D+00  0.0000000000000D+00
156  1.5500000000000D+00  0.0000000000000D+00  0.0000000000000D+00
157  1.5600000000000D+00  0.0000000000000D+00  0.0000000000000D+00
158  1.5700000000000D+00  0.0000000000000D+00  0.0000000000000D+00
159  1.5800000000000D+00  0.0000000000000D+00  0.0000000000000D+00
160  1.5900000000000D+00  0.0000000000000D+00  0.0000000000000D+00
161  1.6000000000000D+00  0.0000000000000D+00  0.0000000000000D+00
162  1.6100000000000D+00  0.0000000000000D+00  0.0000000000000D+00
163  1.6200000000000D+00  0.0000000000000D+00  0.0000000000000D+00
164  1.6300000000000D+00  0.0000000000000D+00  0.0000000000000D+00
165  1.6400000000000D+00  0.0000000000000D+00  0.0000000000000D+00
166  1.6500000000000D+00  0.0000000000000D+00  0.0000000000000D+00
167  1.6600000000000D+00  0.0000000000000D+00  0.0000000000000D+00
168  1.6700000000000D+00  0.0000000000000D+00  0.0000000000000D+00
169  1.6800000000000D+00  0.0000000000000D+00  0.0000000000000D+00
170  1.6900000000000D+00  0.0000000000000D+00  0.0000000000000D+00
171  1.7000000000000D+00  0.0000000000000D+00  0.0000000000000D+00
172  1.7100000000000D+00  0.0000000000000D+00  0.0000000000000D+00
173  1.7200000000000D+00  0.0000000000000D+00  0.0000000000000D+00
174  1.7300000000000D+00  0.0000000000000D+00  0.0000000000000D+00
175  1.7400000000000D+00  0.0000000000000D+00  0.0000000000000D+00
176  1.7500000000000D+00  0.0000000000000D+00  0.0000000000000D+00
177  1.7600000000000D+00  0.0000000000000D+00  0.0000000000000D+00
178  1.7700000000000D+00  0.0000000000000D+00  0.0000000000000D+00
179  1.7800000000000D+00  0.0000000000000D+00  0.0000000000000D+00
180  1.7900000000000D+00  0.0000000000000D+00  0.0000000000000D+00
181  1.8000000000000D+00  0.0000000000000D+00  0.0000000000000D+00
182  1.8100000000000D+00  0.0000000000000D+00  0.0000000000000D+00
183  1.8200000000000D+00  0.0000000000000D+00  0.0000000000000D+00
184  1.8300000000000D+00  0.0000000000000D+00  0.0000000000000D+00
185  1.8400000000000D+00  0.0000000000000D+00  0.0000000000000D+00
186  1.8500000000000D+00  0.0000000000000D+00  0.0000000000000D+00
187  1.8600000000000D+00  0.0000000000000D+00  0.0000000000000D+00
188  1.8700000000000D+00  0.0000000000000D+00  0.0000000000000D+00
189  1.8800000000000D+00  0.0000000000000D+00  0.0000000000000D+00
190  1.8900000000000D+00  0.0000000000000D+00  0.0000000000000D+00
191  1.9000000000000D+00  0.0000000000000D+00  0.0000000000000D+00
192  1.9100000000000D+00  0.0000000000000D+00  0.0000000000000D+00
193  1.9200000000000D+00  0.0000000000000D+00  0.0000000000000D+00
194  1.9300000000000D+00  0.0000000000000D+00  0.0000000000000D+00
195  1.9400000000000D+00  0.0000000000000D+00  0.0000000000000D+00
196  1.9500000000000D+00  0.0000000000000D+00  0.0000000000000D+00
197  1.9600000000000D+00  0.0000000000000D+00  0.0000000000000D+00
198  1.9700000000000D+00  0.0000000000000D+00  0.0000000000000D+00
199  1.9800000000000D+00  0.0000000000000D+00  0.0000000000000D+00
200  1.9900000000000D+00  0.0000000000000D+00  0.0000000000000D+00
201  2.0000000000000D+00  0.0000000000000D+00  0.0000000000000D+00
202  2.0100000000000D+00  0.0000000000000D+00  0.0000000000000D+00
203  2.0200000000000D+00  0.0000000000000D+00  0.0000000000000D+00
204  2.0300000000000D+00  0.0000000000000D+00  0.0000000000000D+00
205  2.0400000000000D+00  0.0000000000000D+00  0.0000000000000D+00
206  2.0500000000000D+00  0.0000000000000D+00  0.0000000000000D+00
207  2.0600000000000D+00  0.0000000000000D+00  0.0000000000000D+00
208  2.0700000000000D+00  0.0000000000000D+00  0.0000000000000D+00
209  2.0800000000000D+00  0.0000000000000D+00  0.0000000000000D+00
210  2.0900000000000D+00  0.0000000000000D+00  0.0000000000000D+00
211  2.1000000000000D+00  0.0000000000000D+00  0.0000000000000D+00
212  2.1100000000000D+00  0.0000000000000D+00  0.0000000000000D+00
213  2.1200000000000D+00  0.0000000000000D+00  0.0000000000000D+00
214  2.1300000000000D+00  0.0000000000000D+00  0.0000000000000D+00
215  2.1400000000000D+00  0.0000000000000D+00  0.0000000000000D+00
216  2.1500000000000D+00  0.0000000000000D+00  0.0000000000000D+00
217  2.1600000000000D+00  0.0000000000000D+00  0.0000000000000D+00
218  2.1700000000000D+00  0.0000000000000D+00  0.0000000000000D+00
219  2.1800000000000D+00  0.0000000000000D+00  0.0000000000000D+00
220  2.1900000000000D+00  0.0000000000000D+00  0.0000000000000D+00
221  2.2000000000000D+00  0.0000000000000D+00  0.0000000000000D+00
222  2.2100000000000D+00  0.0000000000000D+00  0.0000000000000D+00
223  2.2200000000000D+00  0.0000000000000D+00  0.0000000000000D+00
224  2.2300000000000D+00  0.0000000000000D+00  0.0000000000000D+00
225  2.2400000000000D+00  0.0000000000000D+00  0.0000000000000D+00
226  2.2500000000000D+00  0.0000000000000D+00  0.0000000000000D+00
227  2.2600000000000D+00  0.0000000000000D+00  0.0000000000000D+00
228  2.2700000000000D+00  0.0000000000000D+00  0.0000000000000D+00
229  2.2800000000000D+00  0.0000000000000D+00  0.0000000000000D+00
230  2.2900000000000D+00  0.0000000000000D+00  0.0000000000000D+00
231  2.3000000000000D+00  0.0000000000000D+00  0.0000000000000D+00
232  2.3100000000000D+00  0.0000000000000D+00  0.0000000000000D+00
233  2.3200000000000D+00  0.0000000000000D+00  0.0000000000000D+00
234  2.3300000000000D+00  0.0000000000000D+00  0.0000000000000D+00
235  2.3400000000000D+00  0.0000000000000D+00  0.0000000000000D+00
236  2.3500000000000D+00  0.0000000000000D+00  0.0000000000000D+00
237  2.3600000000000D+00  0.0000000000000D+00  0.0000000000000D+00
238  2.3700000000000D+00  0.0000000000000D+00  0.0000000000000D+00
239  2.3800000000000D+00  0.0000000000000D+00  0.0000000000000D+00
240  2.3900000000000D+00  0.0000000000000D+00  0.0000000000000D+00
241  2.4000000000000D+00  0.0000000000000D+00  0.0000000000000D+00
242  2.4100000000000D+00  0.0000000000000D+00  0.0000000000000D+00
243  2.4200000000000D+00  0.0000000000000D+00  0.0000000000000D+00
244  2.4300000000000D+00  0.0000000000000D+00  0.0000000000000D+00
245  2.4400000000000D+00  0.0000000000000D+00  0.0000000000000D+00
246  2.4500000000000D+00  0.0000000000000D+00  0.0000000000000D+00
247  2.4600000000000D+00  0.0000000000000D+00  0.0000000000000D+00
248  2.4700000000000D+00  0.0000000000000D+00  0.0000000000000D+00
249  2.4800000000000D+00  0.0000000000000D+00  0.0000000000000D+00
250  2.4900000000000D+00  0.0000000000000D+00  0.0000000000000D+00
251  2.5000000000000D+00  0.0000000000000D+00  0.0000000000000D+00
252  2.5100000000000D+00  0.0000000000000D+00  0.0000000000000D+00
253  2.5200000000000D+00  0.0000000000000D+00  0.0000000000000D+00
254  2.5300000000000D+00  0.0000000000000D+00  0.0000000000000D+00
255  2.5400000000000D+00  0.0000000000000D+00  0.0000000000000D+00
256  2.5500000000000D+00  0.0000000000000D+00  0.0000000000000D+00
257  2.5600000000000D+00  0.0000000000000D+00  0.0000000000000D+00
258  2.5700000000000D+00  0.0000000000000D+00  0.0000000000000D+00
259  2.5800000000000D+00  0.0000000000000D+00  0.0000000000000D+00
260  2.5900000000000D+00  0.0000000000000D+00  0.0000000000000D+00
261  2.6000000000000D+00  0.0000000000000D+00  0.0000000000000D+00
262  2.6100000000000D+00  0.0000000000000D+00  0.0000000000000D+00
263  2.6200000000000D+00  0.0000000000000D+00  0.0000000000000D+00
264  2.6300000000000D+00  0.0000000000000D+00  0.0000000000000D+00
265  2.6400000000000D+00  0.0000000000000D+00  0.0000000000000D+00
266  2.6500000000000D+00  0.0000000000000D+00  0.0000000000000D+00
267  2.6600000000000D+00  0.0000000000000D+00  0.0000000000000D+00
268  2.6700000000000D+00  0.0000000000000D+00  0.0000000000000D+00
269  2.6800000000000D+00  0.0000000000000D+00  0.0000000000000D+00
270  2.6900000000000D+00  0.0000000000000D+00  0.0000000000000D+00
271  2.7000000000000D+00  0.0000000000000D+00  0.0000000000000D+00
272  2.7100000000000D+00  0.0000000000000D+00  0.0000000000000D+00
273  2.7200000000000D+00  0.0000000000000D+00  0.0000000000000D+00
274  2.7300000000000D+00  0.0000000000000D+00  0.0000000000000D+00
275  2.7400000000000D+00  0.0000000000000D+00  0.0000000000000D+00
276  2.7500000000000D+00  0.0000000000000D+00  0.0000000000000D+00
277  2.7600000000000D+00  0.0000000000000D+00  0.0000000000000D+00
278  2.7700000000000D+00  0.0000000000000D+00  0.0000000000000D+00
279  2.7800000000000D+00  0.0000000000000D+00  0.0000000000000D+00
280  2.7900000000000D+00  0.0000000000000D+00  0.0000000000000D+00
281  2.8000000000000D+00  0.0000000000000D+00  0.0000000000000D+00
282  2.8100000000000D+00  0.0000000000000D+00  0.0000000000000D+00
283  2.8200000000000D+00  0.0000000000000D+00  0.0000000000000D+00
284  2.8300000000000D+00  0.0000000000000D+00  0.0000000000000D+00
285  2.8400000000000D+00  0.0000000000000D+00  0.0000000000000D+00
286  2.8500000000000D+00  0.0000000000000D+00  0.0000000000000D+00
287  2.8600000000000D+00  0.0000000000000D+00  0.0000000000000D+00
288  2.8700000000000D+00  0.0000000000000D+00  0.0000000000000D+00
289  2.8800000000000D+00  0.0000000000000D+00  0.0000000000000D+00
290  2.8900000000000D+00  0.0000000000000D+00  0.0000000000000D+00
291  2.9000000000000D+00  0.0000000000000D+00  0.0000000000000D+00
292  2.9100000000000D+00  0.0000000000000D+00  0.0000000000000D+00
293  2.9200000000000D+00  0.0000000000000D+00  0.0000000000000D+00
294  2.9300000000000D+00  0.0000000000000D+00  0.0000000000000D+00
295  2.9400000000000D+00  0.0000000000000D+00  0.0000000000000D+00
296  2.9500000000000D+00  0.0000000000000D+00  0.0000000000000D+00
297  2.9600000000000D+00  0.0000000000000D+00  0.0000000000000D+00
298  2.9700000000000D+00  0.0000000000000D+00  0.0000000000000D+00
299  2.9800000000000D+00  0.0000000000000D+00  0.0000000000000D+00
300  2.9900000000000D+00  0.0000000000000D+00  0.0000000000000D+00
301  3.0000000000000D+00  0.0000000000000D+00  0.0000000000000D+00
302  3.0100000000000D+00  0.0000000000000D+00  0.0000000000000D+00
303  3.0200000000000D+00  0.0000000000000D+00  0.0000000000000D+00
304  3.0300000000000D+00  0.0000000000000D+00  0.0000000000000D+00
305  3.0400000000000D+00  0.0000000000000D+00  0.0000000000000D+00
306  3.0500000000000D+00  0.0000000000000D+00  0.0000000000000D+00
307  3.0600000000000D+00  0.0000000000000D+00  0.0000000000000D+00
308  3.0700000000000D+00  0.0000000000000D+00  0.0000000000000D+00
309  3.0800000000000D+00  0.0000000000000D+00  0.0000000000000D+00
310  3.0900000000000D+00  0.0000000000000D+00  0.0000000000000D+00
311  3.1000000000000D+00  0.0000000000000D+00  0.0000000000000D+00
312  3.1100000000000D+00  0.0000000000000D+00  0.0000000000000D+00
313  3.1200000000000D+00  0.0000000000000D+00  0.0000000000000D+00
314  3.1300000000000D+00  0.0000000000000D+00  0.0000000000000D+00
315  3.1400000000000D+00  0.0000000000000D+00  0.0000000000000D+00
316  3.1500000000000D+00  0.0000000000000D+00  0.0000000000000D+00
317  3.1600000000000D+00  0.0000000000000D+00  0.0000000000000D+00
318  3.1700000000000D+00  0.0000000000000D+00  0.0000000000000D+00
319  3.1800000000000D+00  0.0000000000000D+00  0.0000000000000D+00
320  3.1900000000000D+00  0.0000000000000D+00  0.0000000000000D+00
321  3.2000000000000D+00  0.0000000000000D+00  0.0000000000000D+00
322  3.2100000000000D+00  0.0000000000000D+00  0.0000000000000D+00
323  3.2200000000000D+00  0.0000000000000D+00  0.0000000000000D+00
324  3.2300000000000D+00  0.0000000000000D+00  0.0000000000000D+00
325  3.2400000000000D+00  0.0000000000000D+00  0.0000000000000D+00
326  3.2500000000000D+00  0.0000000000000D+00  0.0000000000000D+00
327  3.2600000000000D+00  0.0000000000000D+00  0.0000000000000D+00
328  3.2700000000000D+00  0.0000000000000D+00  0.0000000000000D+00
329  3.2800000000000D+00  0.0000000000000D+00  0.0000000000000D+00
330  3.2900000000000D+00  0.0000000000000D+00  0.0000000000000D+00
331  3.3000000000000D+00  0.0000000000000D+00  0.0000000000000D+00
332  3.3100000000000D+00  0.0000000000000D+00  0.0000000000000D+00
333  3.3200000000000D+00  0.0000000000000D+00  0.0000000000000D+00
334  3.3300000000000D+00  0.0000000000000D+00  0.0000000000000D+00
335  3.3400000000000D+00  0.0000000000000D+00  0.0000000000000D+00
336  3.3500000000000D+00  0.0000000000000D+00  0.0000000000000D+00
337  3.3600000000000D+00  0.0000000000000D+00  0.0000000000000D+00
338  3.3700000000000D+00  0.0000000000000D+00  0.0000000000000D+00
339  3.3800000000000D+00  0.0000000000000D+00  0.0000000000000D+00
340  3.3900000000000D+00  0.0000000000000D+00  0.0000000000000D+00
341  3.4000000000000D+00  0.0000000000000D+00  0.0000000000000D+00
342  3.4100000000000D+00  0.0000000000000D+00  0.0000000000000D+00
343  3.4200000000000D+00  0.0000000000000D+00  0.0000000000000D+00
344  3.4300000000000D+00  0.0000000000000D+00  0.0000000000000D+00
345  3.4400000000000D+00  0.0000000000000D+00  0.0000000000000D+00
346  3.4500000000000D+00  0.0000000000000D+00  0.0000000000000D+00
347  3.4600000000000D+00  0.0000000000000D+00  0.0000000000000D+00
348  3.4700000000000D+00  0.0000000000000D+00  0.0000000000000D+00
349  3.4800000000000D+00  0.0000000000000D+00  0.0000000000000D+00
350  3.4900000000000D+00  0.0000000000000D+00  0.0000000000000D+00
351  3.5000000000000D+00  0.0000000000000D+00  0.0000000000000D+00
352  3.5100000000000D+00  0.0000000000000D+00  0.0000000000000D+00
353  3.5200000000000D+00  0.0000000000000D+00  0.0000000000000D+00
354  3.5300000000000D+00  0.0000000000000D+00  0.0000000000000D+00
355  3.5400000000000D+00  0.0000000000000D+00  0.0000000000000D+00
356  3.5500000000000D+00  0.0000000000000D+00  0.0000000000000D+00
357  3.5600000000000D+00  0.0000000000000D+00  0.0000000000000D+00
358  3.5700000000000D+00  0.0000000000000D+00  0.0000000000000D+00
359  3.5800000000000D+00  0.0000000000000D+00  0.0000000000000D+00
360  3.5900000000000D+00  0.0000000000000D+00  0.0000000000000D+00
361  3.6000000000000D+00  0.0000000000000D+00  0.0000000000000D+00
362  3.6100000000000D+00  0.0000000000000D+00  0.0000000000000D+00
363  3.6200000000000D+00  0.0000000000000D+00  0.0000000000000D+00
364  3.6300000000000D+00  0.0000000000000D+00  0.0000000000000D+00
365  3.6400000000000D+00  0.0000000000000D+00  0.0000000000000D+00
366  3.6500000000000D+00  0.0000000000000D+00  0.0000000000000D+00
367  3.6600000000000D+00  0.0000000000000D+00  0.0000000000000D+00
368  3.6700000000000D+00  0.0000000000000D+00  0.0000000000000D+00
369  3.6800000000000D+00  0.0000000000000D+00  0.0000000000000D+00
370  3.6900000000000D+00  0.0000000000000D+00  0.0000000000000D+00
371  3.7000000000000D+00  0.0000000000000D+00  0.0000000000000D+00
372  3.7100000000000D+00  0.0000000000000D+00  0.0000000000000D+00
373  3.7200000000000D+00  0.0000000000000D+00  0.0000000000000D+00
374  3.7300000000000D+00  0.0000000000000D+00  0.0000000000000D+00
375  3.7400000000000D+00  0.0000000000000D+00  0.0000000000000D+00
376  3.7500000000000D+00  0.0000000000000D+00  0.0000000000000D+00
377  3.7600000000000D+00  0.0000000000000D+00  0.0000000000000D+00
378  3.7700000000000D+00  0.0000000000000D+00  0.0000000000000D+00
379  3.7800000000000D+00  0.0000000000000D+00  0.0000000000000D+00
380  3.7900000000000D+00  0.0000000000000D+00  0.0000000000000D+00
381  3.8000000000000D+00  0.0000000000000D+00  0.0000000000000D+00
382  3.8100000000000D+00  0.0000000000000D+00  0.0000000000000D+00
383  3.8200000000000D+00  0.0000000000000D+00  0.0000000000000D+00
384  3.8300000000000D+00  0.0000000000000D+00  0.0000000000000D+00
385  3.8400000000000D+00  0.0000000000000D+00  0.0000000000000D+00
386  3.8500000000000D+00  0.0000000000000D+00  0.0000000000000D+00
387  3.8600000000000D+00  0.0000000000000D+00  0.0000000000000D+00
388  3.8700000000000D+00  0.0000000000000D+00  0.0000000000000D+00
389  3.8800000000000D+00  0.0000000000000D+00  0.0000000000000D+00
390  3.8900000000000D+00  0.0000000000000D+00  0.0000000000000D+00
391  3.9000000000000D+00  0.0000000000000D+00  0.0000000000000D+00
392  3.9100000000000D+00  0.0000000000000D+00  0.0000000000000D+00
393  3.9200000000000D+00  0.0000000000000D+00  0.0000000000000D+00
394  3.9300000000000D+00  0.0000000000000D+00  0.0000000000000D+00
395  3.9400000000000D+00  0.0000000000000D+00  0.0000000000000D+00
396  3.9500000000000D+00  0.0000000000000D+00  0.0000000000000D+00
397  3.9600000000000D+00  0.0000000000000D+00  0.0000000000000D+00
398  3.9700000000000D+00  0.0000000000000D+00  0.0000000000000D+00
399  3.9800000000000D+00  0.0000000000000D+00  0.0000000000000D+00
400  3.9900000000000D+00  0.0000000000000D+00  0.0000000000000D+00
401  4.0000000000000D+00  0.0000000000000D+00  0.0000000000000D+00
402  4.0100000000000D+00  0.0000000000000D+00  0.0000000000000D+00
403  4.0200000000000D+00  0.0000000000000D+00  0.0000000000000D+00
404  4.0300000000000D+00  0.0000000000000D+00  0.0000000000000D+00
405  4.0400000000000D+00  0.0000000000000D+00  0.0000000000000D+00
406  4.0500000000000D+00  0.0000000000000D+00  0.0000000000000D+00
407  4.0600000000000D+00  0.0000000000000D+00  0.0000000000000D+00
408  4.0700000000000D+00  0.0000000000000D+00  0.0000000000000D+00
409  4.0800000000000D+00  0.0000000000000D+00  0.0000000000000D+00
410  4.0900000000000D+00  0.0000000000000D+00  0.0000000000000D+00
411  4.1000000000000D+00  0.0000000000000D+00  0.0000000000000D+00
412  4.1100000000000D+00  0.0000000000000D+00  0.0000000000000D+00
413  4.1200000000000D+00  0.0000000000000D+00  0.0000000000000D+00
414  4.1300000000000D+00  0.0000000000000D+00  0.0000000000000D+00
415  4.1400000000000D+00  0.0000000000000D+00  0.0000000000000D+00
416  4.1500000000000D+00  0.0000000000000D+00  0.0000000000000D+00
417  4.1600000000000D+00  0.0000000000000D+00  0.0000000000000D+00
418  4.1700000000000D+00  0.0000000000000D+00  0.0000000000000D+00
419  4.1800000000000D+00  0.0000000000000D+00  0.0000000000000D+00
420  4.1900000000000D+00  0.0000000000000D+00  0.0000000000000D+00
421  4.2000000000000D+00  0.0000000000000D+00  0.0000000000000D+00
422  4.2100000000000D+00  0.0000000000000D+00  0.0000000000000D+00
423  4.2200000000000D+00  0.0000000000000D+00  0.0000000000000D+00
424  4.2300000000000D+00  0.0000000000000D+00  0.0000000000000D+00
425  4.2400000000000D+00  0.0000000000000D+00  0.0000000000000D+00
426  4.2500000000000D+00  0.0000000000000D+00  0.0000000000000D+00
427  4.2600000000000D+00  0.0000000000000D+00  0.0000000000000D+00
428  4.2700000000000D+00  0.0000000000000D+00  0.0000000000000D+00
429  4.2800000000000D+00  0.0000000000000D+00  0.0000000000000D+00
430  4.2900000000000D+00  0.0000000000000D+00  0.0000000000000D+00
431  4.3000000000000D+00  0.0000000000000D+00  0.0000000000000D+00
432  4.3100000000000D+00  0.0000000000000D+00  0.0000000000000D+00
433  4.3200000000000D+00  0.0000000000000D+00  0.0000000000000D+00
434  4.3300000000000D+00  0.0000000000000D+00  0.0000000000000D+00
435  4.3400000000000D+00  0.0000000000000D+00  0.0000000000000D+00
436  4.3500000000000D+00  0.0000000000000D+00  0.0000000000000D+00
437  4.3600000000000D+00  0.0000000000000D+00  0.0000000000000D+00
438  4.3700000000000D+00  0.0000000000000D+00  0.0000000000000D+00
439  4.3800000000000D+00  0.0000000000000D+00  0.0000000000000D+00
440  4.3900000000000D+00  0.0000000000000D+00  0.0000000000000D+00
441  4.4000000000000D+00  0.0000000000000D+00  0.0000000000000D+00
442  4.4100000000000D+00  0.0000000000000D+00  0.0000000000000D+00
443  4.4200000000000D+00  0.0000000000000D+00  0.0000000000000D+00