S     ONCVPSP-3.3.0  r_core=   1.45376   1.45376   1.61851
16.0000      6.0000      180430    zatom,zion,pspd
8 -116133   2     4   600     0    pspcod,pspxc,lmax,lloc,mmax,r2well
5.99000000  6.00000000  0.00000000    rchrg fchrg qchrg
2     3     2     0    nproj
3     1           extension_switch
3     3     0    nprojso
0                         5.7968276700589D-01  6.8342016827213D+00
1  0.0000000000000D+00  3.3065694848844D-08 -8.0590325524099D-09
2  1.0000000000000D-02 -4.9283027386062D-02  4.9940011655372D-02
3  2.0000000000000D-02 -9.7613982624143D-02  9.9620374856485D-02
4  3.0000000000000D-02 -1.4406097916535D-01  1.4878635897212D-01
5  4.0000000000000D-02 -1.8773207823628D-01  1.9719296597148D-01
6  5.0000000000000D-02 -2.2779421287055D-01  2.4460954123074D-01
7  6.0000000000000D-02 -2.6349087629877D-01  2.9082408364243D-01
8  7.0000000000000D-02 -2.9415820260234D-01  3.3564716449203D-01
9  8.0000000000000D-02 -3.1923910060238D-01  3.7891537262587D-01
10  9.0000000000000D-02 -3.3829514201551D-01  4.2049421319766D-01
11  1.0000000000000D-01 -3.5101595115448D-01  4.6028039855186D-01
12  1.1000000000000D-01 -3.5722589494575D-01  4.9820348235179D-01
13  1.2000000000000D-01 -3.5688792773763D-01  5.3422680163412D-01
14  1.3000000000000D-01 -3.5010450415063D-01  5.6834770579485D-01
15  1.4000000000000D-01 -3.3711553388468D-01  6.0059706629288D-01
16  1.5000000000000D-01 -3.1829341371307D-01  6.3103807579668D-01
17  1.6000000000000D-01 -2.9413523261324D-01  6.5976436029197D-01
18  1.7000000000000D-01 -2.6525230487139D-01  6.8689744201260D-01
19  1.8000000000000D-01 -2.3235724184959D-01  7.1258360465934D-01
20  1.9000000000000D-01 -1.9624882477551D-01  7.3699022495358D-01
21  2.0000000000000D-01 -1.5779498734429D-01  7.6030164587508D-01
22  2.1000000000000D-01 -1.1791425715163D-01  7.8271467672256D-01
23  2.2000000000000D-01 -7.7556038169064D-02  8.0443381320816D-01
24  2.3000000000000D-01 -3.7680141933135D-02  8.2566627698283D-01
25  2.4000000000000D-01  7.6400769377951D-04  8.4661697815751D-01
26  2.5000000000000D-01  3.6858062797217D-02  8.6748350644235D-01
27  2.6000000000000D-01  6.9734899641867D-02  8.8845125642529D-01
28  2.7000000000000D-01  9.8597802977979D-02  9.0968879024468D-01
29  2.8000000000000D-01  1.2273828045798D-01  9.3134353651775D-01
30  2.9000000000000D-01  1.4155212750861D-01  9.5353791794721D-01
31  3.0000000000000D-01  1.5455339720458D-01  9.7636599166590D-01
32  3.1000000000000D-01  1.6138597111945D-01  9.9989067625505D-01
33  3.2000000000000D-01  1.6183247497631D-01  1.0241416276836D+00
34  3.3000000000000D-01  1.5582033624324D-01  1.0491138133955D+00
35  3.4000000000000D-01  1.4342483855743D-01  1.0747668196739D+00
36  3.5000000000000D-01  1.2486908886639D-01  1.1010249125232D+00
37  3.6000000000000D-01  1.0052087622616D-01  1.1277778569202D+00
38  3.7000000000000D-01  7.0886465020231D-02  1.1548824837136D+00
39  3.8000000000000D-01  3.6601428679008D-02  1.1821649780065D+00
40  3.9000000000000D-01 -1.5813085104495D-03  1.2094238478511D+00
41  4.0000000000000D-01 -4.2805995450646D-02  1.2364335178293D+00
42  4.1000000000000D-01 -8.6130863878201D-02  1.2629484788790D+00
43  4.2000000000000D-01 -1.3054689451685D-01  1.2887079138219D+00
44  4.3000000000000D-01 -1.7499816820972D-01  1.3134407077097D+00
45  4.4000000000000D-01 -2.1840339534967D-01  1.3368707435475D+00
46  4.5000000000000D-01 -2.5967818981530D-01  1.3587223773533D+00
47  4.6000000000000D-01 -2.9775763514472D-01  1.3787259820287D+00
48  4.7000000000000D-01 -3.3161868126561D-01  1.3966234472380D+00
49  4.8000000000000D-01 -3.6030190999405D-01  1.4121735224905D+00
50  4.9000000000000D-01 -3.8293221677627D-01  1.4251568929015D+00
51  5.0000000000000D-01 -3.9873797465414D-01  1.4353808816479D+00
52  5.1000000000000D-01 -4.0706827386211D-01  1.4426836798480D+00
53  5.2000000000000D-01 -4.0740786632665D-01  1.4469380133651D+00
54  5.3000000000000D-01 -3.9938948798726D-01  1.4480541667094D+00
55  5.4000000000000D-01 -3.8280328241736D-01  1.4459822965639D+00
56  5.5000000000000D-01 -3.5760310575975D-01  1.4407139812758D+00
57  5.6000000000000D-01 -3.2390955448803D-01  1.4322829676740D+00
58  5.7000000000000D-01 -2.8200962245523D-01  1.4207650924346D+00
59  5.8000000000000D-01 -2.3235296141346D-01  1.4062773717510D+00
60  5.9000000000000D-01 -1.7554478745567D-01  1.3889762697331D+00
61  6.0000000000000D-01 -1.1233554440297D-01  1.3690551726947D+00
62  6.1000000000000D-01 -4.3607501375047D-02  1.3467411126488D+00
63  6.2000000000000D-01  2.9641474360126D-02  1.3222907989126D+00
64  6.3000000000000D-01  1.0631666917882D-01  1.2959860311122D+00
65  6.4000000000000D-01  1.8524744569276D-01  1.2681285799917D+00
66  6.5000000000000D-01  2.6520993521948D-01  1.2390346339090D+00
67  6.6000000000000D-01  3.4495105997324D-01  1.2090289184681D+00
68  6.7000000000000D-01  4.2321341380290D-01  1.1784386042895D+00
69  6.8000000000000D-01  4.9876050864356D-01  1.1475871231973D+00
70  6.9000000000000D-01  5.7040188182615D-01  1.1167880160150D+00
71  7.0000000000000D-01  6.3701755728825D-01  1.0863389356643D+00
72  7.1000000000000D-01  6.9758136183488D-01  1.0565159272647D+00
73  7.2000000000000D-01  7.5118261565991D-01  1.0275681025103D+00
74  7.3000000000000D-01  7.9704574423113D-01  9.9971281877818D-01
75  7.4000000000000D-01  8.3454739565844D-01  9.7313146437851D-01
76  7.5000000000000D-01  8.6323069342962D-01  9.4796594017499D-01
77  7.6000000000000D-01  8.8281630793254D-01  9.2431591473290D-01
78  7.7000000000000D-01  8.9321009035846D-01  9.0223691546029D-01
79  7.8000000000000D-01  8.9450707850335D-01  8.8173930211731D-01
80  7.9000000000000D-01  8.8699175422799D-01  8.6278815192750D-01
81  8.0000000000000D-01  8.7113450560131D-01  8.4530406764975D-01
82  8.1000000000000D-01  8.4758432160111D-01  8.2916490171186D-01
83  8.2000000000000D-01  8.1715782221734D-01  8.1420837122314D-01
84  8.3000000000000D-01  7.8082480040646D-01  8.0023552073813D-01
85  8.4000000000000D-01  7.3969052316431D-01  7.8701497238195D-01
86  8.5000000000000D-01  6.9497510543433D-01  7.7428788675647D-01
87  8.6000000000000D-01  6.4799033164983D-01  7.6177354316960D-01
88  8.7000000000000D-01  6.0011435373696D-01  7.4917543457795D-01
89  8.8000000000000D-01  5.5276474058906D-01  7.3618776139913D-01
90  8.9000000000000D-01  5.0737039125493D-01  7.2250219930392D-01
91  9.0000000000000D-01  4.6534285162910D-01  7.0781480941862D-01
92  9.1000000000000D-01  4.2804759156098D-01  6.9183295523315D-01
93  9.2000000000000D-01  3.9677580572011D-01  6.7428208898966D-01
94  9.3000000000000D-01  3.7271729698306D-01  6.5491227149020D-01
95  9.4000000000000D-01  3.5693498556912D-01  6.3350429310141D-01
96  9.5000000000000D-01  3.5034156086481D-01  6.0987527019704D-01
97  9.6000000000000D-01  3.5367875626962D-01  5.8388360025934D-01
98  9.7000000000000D-01  3.6749968110637D-01  5.5543317020079D-01
99  9.8000000000000D-01  3.9215458861342D-01  5.2447672593849D-01
100  9.9000000000000D-01  4.2778039554722D-01  4.9101832678521D-01
101  1.0000000000000D+00  4.7429419978096D-01  4.5511482512908D-01
102  1.0100000000000D+00  5.3139096793329D-01  4.1687633004743D-01
103  1.0200000000000D+00  5.9854548407371D-01  3.7646563328871D-01
104  1.0300000000000D+00  6.7501857099975D-01  3.3409659548669D-01
105  1.0400000000000D+00  7.5986751268664D-01  2.9003151071187D-01
106  1.0500000000000D+00  8.5196052399532D-01  2.4457748760442D-01
107  1.0600000000000D+00  9.4999503602220D-01  1.9808190429126D-01
108  1.0700000000000D+00  1.0525194905227D+00  1.5092701256963D-01
109  1.0800000000000D+00  1.1579582631416D+00  1.0352378480275D-01
110  1.0900000000000D+00  1.2646392758224D+00  5.6305111432306D-02
111  1.1000000000000D+00  1.3708238003539D+00  9.7184712278362D-03
112  1.1100000000000D+00  1.4747379128721D+00 -3.5781793363138D-02
113  1.1200000000000D+00  1.5746050181287D+00 -7.9742453449566D-02
114  1.1300000000000D+00  1.6686788390065D+00 -1.2171947556740D-01
115  1.1400000000000D+00  1.7552762540168D+00 -1.6128605719701D-01
116  1.1500000000000D+00  1.8328093631912D+00 -1.9804046444001D-01
117  1.1600000000000D+00  1.8998161681761D+00 -2.3161352176312D-01
118  1.1700000000000D+00  1.9549892778164D+00 -2.6167561002677D-01
119  1.1800000000000D+00  1.9972020880086D+00 -2.8794303825556D-01
120  1.1900000000000D+00  2.0255319132653D+00 -3.1018366167128D-01
121  1.2000000000000D+00  2.0392796125452D+00 -3.2822163451702D-01
122  1.2100000000000D+00  2.0379853161832D+00 -3.4194120197659D-01
123  1.2200000000000D+00  2.0214399302107D+00 -3.5128945253345D-01
124  1.2300000000000D+00  1.9896921479265D+00 -3.5627796525971D-01
125  1.2400000000000D+00  1.9430508206496D+00 -3.5698331644725D-01
126  1.2500000000000D+00  1.8820826168755D+00 -3.5354642892248D-01
127  1.2600000000000D+00  1.8076049299588D+00 -3.4617075496780D-01
128  1.2700000000000D+00  1.7206741703562D+00 -3.3511932685360D-01
129  1.2800000000000D+00  1.6225696280485D+00 -3.2071072111069D-01
130  1.2900000000000D+00  1.5147731167553D+00 -3.0331398904995D-01
131  1.3000000000000D+00  1.3989447972826D+00 -2.8334265148559D-01
132  1.3100000000000D+00  1.2768955880553D+00 -2.6124785821975D-01
133  1.3200000000000D+00  1.1505566024735D+00 -2.3751082059301D-01
134  1.3300000000000D+00  1.0219462072492D+00 -2.1263466317337D-01
135  1.3400000000000D+00  8.9313525253230D-01 -1.8713583003878D-01
136  1.3500000000000D+00  7.6621109615477D-01 -1.6153519861389D-01
137  1.3600000000000D+00  6.4324107913882D-01 -1.3634906313390D-01
138  1.3700000000000D+00  5.2623611283282D-01 -1.1208014558145D-01
139  1.3800000000000D+00  4.1711496177176D-01 -8.9208793468040D-02
140  1.3900000000000D+00  3.1767021794915D-01 -6.8184549687261D-02
141  1.4000000000000D+00  2.2953539871315D-01 -4.9418138257057D-02
142  1.4100000000000D+00  1.5420688523395D-01 -3.3285260334926D-02
143  1.4200000000000D+00  9.2739245581796D-02 -2.0059367743647D-02
144  1.4300000000000D+00  4.6038273539737D-02 -9.9743038975273D-03
145  1.4400000000000D+00  1.6226942273117D-02 -3.5201585058206D-03
146  1.4500000000000D+00  2.2998253617116D-03 -4.9920109128165D-04
147  1.4600000000000D+00 -1.1504676333624D-03  2.5030776004498D-04
148  1.4700000000000D+00 -1.7073622982628D-04  3.7158148941060D-05
149  1.4800000000000D+00  3.6703283241924D-04 -7.9779665389296D-05
150  1.4900000000000D+00 -1.5586197939867D-05  3.3818007465142D-06
151  1.5000000000000D+00 -5.9606854149357D-05  1.2932565409355D-05
152  1.5100000000000D+00 -2.0281638368251D-07  4.3450646732532D-08
153  1.5200000000000D+00 -2.3842525524557D-07  5.1079362276799D-08
154  1.5300000000000D+00  0.0000000000000D+00  0.0000000000000D+00
155  1.5400000000000D+00  0.0000000000000D+00  0.0000000000000D+00
156  1.5500000000000D+00  0.0000000000000D+00  0.0000000000000D+00
157  1.5600000000000D+00  0.0000000000000D+00  0.0000000000000D+00
158  1.5700000000000D+00  0.0000000000000D+00  0.0000000000000D+00
159  1.5800000000000D+00  0.0000000000000D+00  0.0000000000000D+00
160  1.5900000000000D+00  0.0000000000000D+00  0.0000000000000D+00
161  1.6000000000000D+00  0.0000000000000D+00  0.0000000000000D+00
162  1.6100000000000D+00  0.0000000000000D+00  0.0000000000000D+00
163  1.6200000000000D+00  0.0000000000000D+00  0.0000000000000D+00
164  1.6300000000000D+00  0.0000000000000D+00  0.0000000000000D+00
165  1.6400000000000D+00  0.0000000000000D+00  0.0000000000000D+00
166  1.6500000000000D+00  0.0000000000000D+00  0.0000000000000D+00
167  1.6600000000000D+00  0.0000000000000D+00  0.0000000000000D+00
168  1.6700000000000D+00  0.0000000000000D+00  0.0000000000000D+00
169  1.6800000000000D+00  0.0000000000000D+00  0.0000000000000D+00
170  1.6900000000000D+00  0.0000000000000D+00  0.0000000000000D+00
171  1.7000000000000D+00  0.0000000000000D+00  0.0000000000000D+00
172  1.7100000000000D+00  0.0000000000000D+00  0.0000000000000D+00
173  1.7200000000000D+00  0.0000000000000D+00  0.0000000000000D+00
174  1.7300000000000D+00  0.0000000000000D+00  0.0000000000000D+00
175  1.7400000000000D+00  0.0000000000000D+00  0.0000000000000D+00
176  1.7500000000000D+00  0.0000000000000D+00  0.0000000000000D+00
177  1.7600000000000D+00  0.0000000000000D+00  0.0000000000000D+00
178  1.7700000000000D+00  0.0000000000000D+00  0.0000000000000D+00
179  1.7800000000000D+00  0.0000000000000D+00  0.0000000000000D+00
180  1.7900000000000D+00  0.0000000000000D+00  0.0000000000000D+00
181  1.8000000000000D+00  0.0000000000000D+00  0.0000000000000D+00
182  1.8100000000000D+00  0.0000000000000D+00  0.0000000000000D+00
183  1.8200000000000D+00  0.0000000000000D+00  0.0000000000000D+00
184  1.8300000000000D+00  0.0000000000000D+00  0.0000000000000D+00
185  1.8400000000000D+00  0.0000000000000D+00  0.0000000000000D+00
186  1.8500000000000D+00  0.0000000000000D+00  0.0000000000000D+00
187  1.8600000000000D+00  0.0000000000000D+00  0.0000000000000D+00
188  1.8700000000000D+00  0.0000000000000D+00  0.0000000000000D+00
189  1.8800000000000D+00  0.0000000000000D+00  0.0000000000000D+00
190  1.8900000000000D+00  0.0000000000000D+00  0.0000000000000D+00
191  1.9000000000000D+00  0.0000000000000D+00  0.0000000000000D+00
192  1.9100000000000D+00  0.0000000000000D+00  0.0000000000000D+00
193  1.9200000000000D+00  0.0000000000000D+00  0.0000000000000D+00
194  1.9300000000000D+00  0.0000000000000D+00  0.0000000000000D+00
195  1.9400000000000D+00  0.0000000000000D+00  0.0000000000000D+00
196  1.9500000000000D+00  0.0000000000000D+00  0.0000000000000D+00
197  1.9600000000000D+00  0.0000000000000D+00  0.0000000000000D+00
198  1.9700000000000D+00  0.0000000000000D+00  0.0000000000000D+00
199  1.9800000000000D+00  0.0000000000000D+00  0.0000000000000D+00
200  1.9900000000000D+00  0.0000000000000D+00  0.0000000000000D+00
201  2.0000000000000D+00  0.0000000000000D+00  0.0000000000000D+00
202  2.0100000000000D+00  0.0000000000000D+00  0.0000000000000D+00
203  2.0200000000000D+00  0.0000000000000D+00  0.0000000000000D+00
204  2.0300000000000D+00  0.0000000000000D+00  0.0000000000000D+00
205  2.0400000000000D+00  0.0000000000000D+00  0.0000000000000D+00
206  2.0500000000000D+00  0.0000000000000D+00  0.0000000000000D+00
207  2.0600000000000D+00  0.0000000000000D+00  0.0000000000000D+00
208  2.0700000000000D+00  0.0000000000000D+00  0.0000000000000D+00
209  2.0800000000000D+00  0.0000000000000D+00  0.0000000000000D+00
210  2.0900000000000D+00  0.0000000000000D+00  0.0000000000000D+00
211  2.1000000000000D+00  0.0000000000000D+00  0.0000000000000D+00
212  2.1100000000000D+00  0.0000000000000D+00  0.0000000000000D+00
213  2.1200000000000D+00  0.0000000000000D+00  0.0000000000000D+00
214  2.1300000000000D+00  0.0000000000000D+00  0.0000000000000D+00
215  2.1400000000000D+00  0.0000000000000D+00  0.0000000000000D+00
216  2.1500000000000D+00  0.0000000000000D+00  0.0000000000000D+00
217  2.1600000000000D+00  0.0000000000000D+00  0.0000000000000D+00
218  2.1700000000000D+00  0.0000000000000D+00  0.0000000000000D+00
219  2.1800000000000D+00  0.0000000000000D+00  0.0000000000000D+00
220  2.1900000000000D+00  0.0000000000000D+00  0.0000000000000D+00
221  2.2000000000000D+00  0.0000000000000D+00  0.0000000000000D+00
222  2.2100000000000D+00  0.0000000000000D+00  0.0000000000000D+00
223  2.2200000000000D+00  0.0000000000000D+00  0.0000000000000D+00
224  2.2300000000000D+00  0.0000000000000D+00  0.0000000000000D+00
225  2.2400000000000D+00  0.0000000000000D+00  0.0000000000000D+00
226  2.2500000000000D+00  0.0000000000000D+00  0.0000000000000D+00
227  2.2600000000000D+00  0.0000000000000D+00  0.0000000000000D+00
228  2.2700000000000D+00  0.0000000000000D+00  0.0000000000000D+00
229  2.2800000000000D+00  0.0000000000000D+00  0.0000000000000D+00
230  2.2900000000000D+00  0.0000000000000D+00  0.0000000000000D+00
231  2.3000000000000D+00  0.0000000000000D+00  0.0000000000000D+00
232  2.3100000000000D+00  0.0000000000000D+00  0.0000000000000D+00
233  2.3200000000000D+00  0.0000000000000D+00  0.0000000000000D+00
234  2.3300000000000D+00  0.0000000000000D+00  0.0000000000000D+00
235  2.3400000000000D+00  0.0000000000000D+00  0.0000000000000D+00
236  2.3500000000000D+00  0.0000000000000D+00  0.0000000000000D+00
237  2.3600000000000D+00  0.0000000000000D+00  0.0000000000000D+00
238  2.3700000000000D+00  0.0000000000000D+00  0.0000000000000D+00
239  2.3800000000000D+00  0.0000000000000D+00  0.0000000000000D+00
240  2.3900000000000D+00  0.0000000000000D+00  0.0000000000000D+00
241  2.4000000000000D+00  0.0000000000000D+00  0.0000000000000D+00
242  2.4100000000000D+00  0.0000000000000D+00  0.0000000000000D+00
243  2.4200000000000D+00  0.0000000000000D+00  0.0000000000000D+00
244  2.4300000000000D+00  0.0000000000000D+00  0.0000000000000D+00
245  2.4400000000000D+00  0.0000000000000D+00  0.0000000000000D+00
246  2.4500000000000D+00  0.0000000000000D+00  0.0000000000000D+00
247  2.4600000000000D+00  0.0000000000000D+00  0.0000000000000D+00
248  2.4700000000000D+00  0.0000000000000D+00  0.0000000000000D+00
249  2.4800000000000D+00  0.0000000000000D+00  0.0000000000000D+00
250  2.4900000000000D+00  0.0000000000000D+00  0.0000000000000D+00
251  2.5000000000000D+00  0.0000000000000D+00  0.0000000000000D+00
252  2.5100000000000D+00  0.0000000000000D+00  0.0000000000000D+00
253  2.5200000000000D+00  0.0000000000000D+00  0.0000000000000D+00
254  2.5300000000000D+00  0.0000000000000D+00  0.0000000000000D+00
255  2.5400000000000D+00  0.0000000000000D+00  0.0000000000000D+00
256  2.5500000000000D+00  0.0000000000000D+00  0.0000000000000D+00
257  2.5600000000000D+00  0.0000000000000D+00  0.0000000000000D+00
258  2.5700000000000D+00  0.0000000000000D+00  0.0000000000000D+00
259  2.5800000000000D+00  0.0000000000000D+00  0.0000000000000D+00
260  2.5900000000000D+00  0.0000000000000D+00  0.0000000000000D+00
261  2.6000000000000D+00  0.0000000000000D+00  0.0000000000000D+00
262  2.6100000000000D+00  0.0000000000000D+00  0.0000000000000D+00
263  2.6200000000000D+00  0.0000000000000D+00  0.0000000000000D+00
264  2.6300000000000D+00  0.0000000000000D+00  0.0000000000000D+00
265  2.6400000000000D+00  0.0000000000000D+00  0.0000000000000D+00
266  2.6500000000000D+00  0.0000000000000D+00  0.0000000000000D+00
267  2.6600000000000D+00  0.0000000000000D+00  0.0000000000000D+00
268  2.6700000000000D+00  0.0000000000000D+00  0.0000000000000D+00
269  2.6800000000000D+00  0.0000000000000D+00  0.0000000000000D+00
270  2.6900000000000D+00  0.0000000000000D+00  0.0000000000000D+00
271  2.7000000000000D+00  0.0000000000000D+00  0.0000000000000D+00
272  2.7100000000000D+00  0.0000000000000D+00  0.0000000000000D+00
273  2.7200000000000D+00  0.0000000000000D+00  0.0000000000000D+00
274  2.7300000000000D+00  0.0000000000000D+00  0.0000000000000D+00
275  2.7400000000000D+00  0.0000000000000D+00  0.0000000000000D+00
276  2.7500000000000D+00  0.0000000000000D+00  0.0000000000000D+00
277  2.7600000000000D+00  0.0000000000000D+00  0.0000000000000D+00
278  2.7700000000000D+00  0.0000000000000D+00  0.0000000000000D+00
279  2.7800000000000D+00  0.0000000000000D+00  0.0000000000000D+00
280  2.7900000000000D+00  0.0000000000000D+00  0.0000000000000D+00
281  2.8000000000000D+00  0.0000000000000D+00  0.0000000000000D+00
282  2.8100000000000D+00  0.0000000000000D+00  0.0000000000000D+00
283  2.8200000000000D+00  0.0000000000000D+00  0.0000000000000D+00
284  2.8300000000000D+00  0.0000000000000D+00  0.0000000000000D+00
285  2.8400000000000D+00  0.0000000000000D+00  0.0000000000000D+00
286  2.8500000000000D+00  0.0000000000000D+00  0.0000000000000D+00
287  2.8600000000000D+00  0.0000000000000D+00  0.0000000000000D+00
288  2.8700000000000D+00  0.0000000000000D+00  0.0000000000000D+00
289  2.8800000000000D+00  0.0000000000000D+00  0.0000000000000D+00
290  2.8900000000000D+00  0.0000000000000D+00  0.0000000000000D+00
291  2.9000000000000D+00  0.0000000000000D+00  0.0000000000000D+00
292  2.9100000000000D+00  0.0000000000000D+00  0.0000000000000D+00
293  2.9200000000000D+00  0.0000000000000D+00  0.0000000000000D+00
294  2.9300000000000D+00  0.0000000000000D+00  0.0000000000000D+00
295  2.9400000000000D+00  0.0000000000000D+00  0.0000000000000D+00
296  2.9500000000000D+00  0.0000000000000D+00  0.0000000000000D+00
297  2.9600000000000D+00  0.0000000000000D+00  0.0000000000000D+00
298  2.9700000000000D+00  0.0000000000000D+00  0.0000000000000D+00
299  2.9800000000000D+00  0.0000000000000D+00  0.0000000000000D+00
300  2.9900000000000D+00  0.0000000000000D+00  0.0000000000000D+00
301  3.0000000000000D+00  0.0000000000000D+00  0.0000000000000D+00
302  3.0100000000000D+00  0.0000000000000D+00  0.0000000000000D+00
303  3.0200000000000D+00  0.0000000000000D+00  0.0000000000000D+00
304  3.0300000000000D+00  0.0000000000000D+00  0.0000000000000D+00
305  3.0400000000000D+00  0.0000000000000D+00  0.0000000000000D+00
306  3.0500000000000D+00  0.0000000000000D+00  0.0000000000000D+00
307  3.0600000000000D+00  0.0000000000000D+00  0.0000000000000D+00
308  3.0700000000000D+00  0.0000000000000D+00  0.0000000000000D+00
309  3.0800000000000D+00  0.0000000000000D+00  0.0000000000000D+00
310  3.0900000000000D+00  0.0000000000000D+00  0.0000000000000D+00
311  3.1000000000000D+00  0.0000000000000D+00  0.0000000000000D+00
312  3.1100000000000D+00  0.0000000000000D+00  0.0000000000000D+00
313  3.1200000000000D+00  0.0000000000000D+00  0.0000000000000D+00
314  3.1300000000000D+00  0.0000000000000D+00  0.0000000000000D+00
315  3.1400000000000D+00  0.0000000000000D+00  0.0000000000000D+00
316  3.1500000000000D+00  0.0000000000000D+00  0.0000000000000D+00
317  3.1600000000000D+00  0.0000000000000D+00  0.0000000000000D+00
318  3.1700000000000D+00  0.0000000000000D+00  0.0000000000000D+00
319  3.1800000000000D+00  0.0000000000000D+00  0.0000000000000D+00
320  3.1900000000000D+00  0.0000000000000D+00  0.0000000000000D+00
321  3.2000000000000D+00  0.0000000000000D+00  0.0000000000000D+00
322  3.2100000000000D+00  0.0000000000000D+00  0.0000000000000D+00
323  3.2200000000000D+00  0.0000000000000D+00  0.0000000000000D+00
324  3.2300000000000D+00  0.0000000000000D+00  0.0000000000000D+00
325  3.2400000000000D+00  0.0000000000000D+00  0.0000000000000D+00
326  3.2500000000000D+00  0.0000000000000D+00  0.0000000000000D+00
327  3.2600000000000D+00  0.0000000000000D+00  0.0000000000000D+00
328  3.2700000000000D+00  0.0000000000000D+00  0.0000000000000D+00
329  3.2800000000000D+00  0.0000000000000D+00  0.0000000000000D+00
330  3.2900000000000D+00  0.0000000000000D+00  0.0000000000000D+00
331  3.3000000000000D+00  0.0000000000000D+00  0.0000000000000D+00
332  3.3100000000000D+00  0.0000000000000D+00  0.0000000000000D+00
333  3.3200000000000D+00  0.0000000000000D+00  0.0000000000000D+00
334  3.3300000000000D+00  0.0000000000000D+00  0.0000000000000D+00
335  3.3400000000000D+00  0.0000000000000D+00  0.0000000000000D+00
336  3.3500000000000D+00  0.0000000000000D+00  0.0000000000000D+00
337  3.3600000000000D+00  0.0000000000000D+00  0.0000000000000D+00
338  3.3700000000000D+00  0.0000000000000D+00  0.0000000000000D+00
339  3.3800000000000D+00  0.0000000000000D+00  0.0000000000000D+00
340  3.3900000000000D+00  0.0000000000000D+00  0.0000000000000D+00
341  3.4000000000000D+00  0.0000000000000D+00  0.0000000000000D+00
342  3.4100000000000D+00  0.0000000000000D+00  0.0000000000000D+00
343  3.4200000000000D+00  0.0000000000000D+00  0.0000000000000D+00
344  3.4300000000000D+00  0.0000000000000D+00  0.0000000000000D+00
345  3.4400000000000D+00  0.0000000000000D+00  0.0000000000000D+00
346  3.4500000000000D+00  0.0000000000000D+00  0.0000000000000D+00
347  3.4600000000000D+00  0.0000000000000D+00  0.0000000000000D+00
348  3.4700000000000D+00  0.0000000000000D+00  0.0000000000000D+00
349  3.4800000000000D+00  0.0000000000000D+00  0.0000000000000D+00
350  3.4900000000000D+00  0.0000000000000D+00  0.0000000000000D+00
351  3.5000000000000D+00  0.0000000000000D+00  0.0000000000000D+00
352  3.5100000000000D+00  0.0000000000000D+00  0.0000000000000D+00
353  3.5200000000000D+00  0.0000000000000D+00  0.0000000000000D+00
354  3.5300000000000D+00  0.0000000000000D+00  0.0000000000000D+00
355  3.5400000000000D+00  0.0000000000000D+00  0.0000000000000D+00
356  3.5500000000000D+00  0.0000000000000D+00  0.0000000000000D+00
357  3.5600000000000D+00  0.0000000000000D+00  0.0000000000000D+00
358  3.5700000000000D+00  0.0000000000000D+00  0.0000000000000D+00
359  3.5800000000000D+00  0.0000000000000D+00  0.0000000000000D+00
360  3.5900000000000D+00  0.0000000000000D+00  0.0000000000000D+00
361  3.6000000000000D+00  0.0000000000000D+00  0.0000000000000D+00
362  3.6100000000000D+00  0.0000000000000D+00  0.0000000000000D+00
363  3.6200000000000D+00  0.0000000000000D+00  0.0000000000000D+00
364  3.6300000000000D+00  0.0000000000000D+00  0.0000000000000D+00
365  3.6400000000000D+00  0.0000000000000D+00  0.0000000000000D+00
366  3.6500000000000D+00  0.0000000000000D+00  0.0000000000000D+00
367  3.6600000000000D+00  0.0000000000000D+00  0.0000000000000D+00
368  3.6700000000000D+00  0.0000000000000D+00  0.0000000000000D+00
369  3.6800000000000D+00  0.0000000000000D+00  0.0000000000000D+00
370  3.6900000000000D+00  0.0000000000000D+00  0.0000000000000D+00
371  3.7000000000000D+00  0.0000000000000D+00  0.0000000000000D+00
372  3.7100000000000D+00  0.0000000000000D+00  0.0000000000000D+00
373  3.7200000000000D+00  0.0000000000000D+00  0.0000000000000D+00
374  3.7300000000000D+00  0.0000000000000D+00  0.0000000000000D+00
375  3.7400000000000D+00  0.0000000000000D+00  0.0000000000000D+00
376  3.7500000000000D+00  0.0000000000000D+00  0.0000000000000D+00
377  3.7600000000000D+00  0.0000000000000D+00  0.0000000000000D+00
378  3.7700000000000D+00  0.0000000000000D+00  0.0000000000000D+00
379  3.7800000000000D+00  0.0000000000000D+00  0.0000000000000D+00
380  3.7900000000000D+00  0.0000000000000D+00  0.0000000000000D+00
381  3.8000000000000D+00  0.0000000000000D+00  0.0000000000000D+00
382  3.8100000000000D+00  0.0000000000000D+00  0.0000000000000D+00
383  3.8200000000000D+00  0.0000000000000D+00  0.0000000000000D+00
384  3.8300000000000D+00  0.0000000000000D+00  0.0000000000000D+00
385  3.8400000000000D+00  0.0000000000000D+00  0.0000000000000D+00
386  3.8500000000000D+00  0.0000000000000D+00  0.0000000000000D+00
387  3.8600000000000D+00  0.0000000000000D+00  0.0000000000000D+00
388  3.8700000000000D+00  0.0000000000000D+00  0.0000000000000D+00
389  3.8800000000000D+00  0.0000000000000D+00  0.0000000000000D+00
390  3.8900000000000D+00  0.0000000000000D+00  0.0000000000000D+00
391  3.9000000000000D+00  0.0000000000000D+00  0.0000000000000D+00
392  3.9100000000000D+00  0.0000000000000D+00  0.0000000000000D+00
393  3.9200000000000D+00  0.0000000000000D+00  0.0000000000000D+00
394  3.9300000000000D+00  0.0000000000000D+00  0.0000000000000D+00
395  3.9400000000000D+00  0.0000000000000D+00  0.0000000000000D+00
396  3.9500000000000D+00  0.0000000000000D+00  0.0000000000000D+00
397  3.9600000000000D+00  0.0000000000000D+00  0.0000000000000D+00
398  3.9700000000000D+00  0.0000000000000D+00  0.0000000000000D+00
399  3.9800000000000D+00  0.0000000000000D+00  0.0000000000000D+00
400  3.9900000000000D+00  0.0000000000000D+00  0.0000000000000D+00
401  4.0000000000000D+00  0.0000000000000D+00  0.0000000000000D+00
402  4.0100000000000D+00  0.0000000000000D+00  0.0000000000000D+00
403  4.0200000000000D+00  0.0000000000000D+00  0.0000000000000D+00
404  4.0300000000000D+00  0.0000000000000D+00  0.0000000000000D+00
405  4.0400000000000D+00  0.0000000000000D+00  0.0000000000000D+00
406  4.0500000000000D+00  0.0000000000000D+00  0.0000000000000D+00
407  4.0600000000000D+00  0.0000000000000D+00  0.0000000000000D+00
408  4.0700000000000D+00  0.0000000000000D+00  0.0000000000000D+00
409  4.0800000000000D+00  0.0000000000000D+00  0.0000000000000D+00
410  4.0900000000000D+00  0.0000000000000D+00  0.0000000000000D+00
411  4.1000000000000D+00  0.0000000000000D+00  0.0000000000000D+00
412  4.1100000000000D+00  0.0000000000000D+00  0.0000000000000D+00
413  4.1200000000000D+00  0.0000000000000D+00  0.0000000000000D+00
414  4.1300000000000D+00  0.0000000000000D+00  0.0000000000000D+00
415  4.1400000000000D+00  0.0000000000000D+00  0.0000000000000D+00
416  4.1500000000000D+00  0.0000000000000D+00  0.0000000000000D+00
417  4.1600000000000D+00  0.0000000000000D+00  0.0000000000000D+00
418  4.1700000000000D+00  0.0000000000000D+00  0.0000000000000D+00
419  4.1800000000000D+00  0.0000000000000D+00  0.0000000000000D+00
420  4.1900000000000D+00  0.0000000000000D+00  0.0000000000000D+00
421  4.2000000000000D+00  0.0000000000000D+00  0.0000000000000D+00
422  4.2100000000000D+00  0.0000000000000D+00  0.0000000000000D+00
423  4.2200000000000D+00  0.0000000000000D+00  0.0000000000000D+00
424  4.2300000000000D+00  0.0000000000000D+00  0.0000000000000D+00
425  4.2400000000000D+00  0.0000000000000D+00  0.0000000000000D+00
426  4.2500000000000D+00  0.0000000000000D+00  0.0000000000000D+00
427  4.2600000000000D+00  0.0000000000000D+00  0.0000000000000D+00
428  4.2700000000000D+00  0.0000000000000D+00  0.0000000000000D+00
429  4.2800000000000D+00  0.0000000000000D+00  0.0000000000000D+00
430  4.2900000000000D+00  0.0000000000000D+00  0.0000000000000D+00
431  4.3000000000000D+00  0.0000000000000D+00  0.0000000000000D+00
432  4.3100000000000D+00  0.0000000000000D+00  0.0000000000000D+00
433  4.3200000000000D+00  0.0000000000000D+00  0.0000000000000D+00
434  4.3300000000000D+00  0.0000000000000D+00  0.0000000000000D+00
435  4.3400000000000D+00  0.0000000000000D+00  0.0000000000000D+00
436  4.3500000000000D+00  0.0000000000000D+00  0.0000000000000D+00
437  4.3600000000000D+00  0.0000000000000D+00  0.0000000000000D+00
438  4.3700000000000D+00  0.0000000000000D+00  0.0000000000000D+00
439  4.3800000000000D+00  0.0000000000000D+00  0.0000000000000D+00
440  4.3900000000000D+00  0.0000000000000D+00  0.0000000000000D+00
441  4.4000000000000D+00  0.0000000000000D+00  0.0000000000000D+00
442  4.4100000000000D+00  0.0000000000000D+00  0.0000000000000D+00
443  4.4200000000000D+00  0.0000000000000D+00  0.0000000000000D+00