Sb    ONCVPSP-3.3.0  r_core=   1.81962   2.12485   1.81962
51.0000     15.0000      180506    zatom,zion,pspd
8 -116133   2     4   600     0    pspcod,pspxc,lmax,lloc,mmax,r2well
5.99000000  5.00000000  0.00000000    rchrg fchrg qchrg
2     4     2     0    nproj
3     1           extension_switch
4     3     0    nprojso
0                         1.4861764028336D+00  9.7331785130639D+00
1  0.0000000000000D+00  4.2005648959176D-11 -3.7882086356689D-11
2  1.0000000000000D-02 -1.9441939670906D-02  2.9601779098036D-02
3  2.0000000000000D-02 -3.8812737283911D-02  5.9144455339208D-02
4  3.0000000000000D-02 -5.8041628682001D-02  8.8569264100667D-02
5  4.0000000000000D-02 -7.7058603339666D-02  1.1781811526116D-01
6  5.0000000000000D-02 -9.5794775763538D-02  1.4683392554529D-01
7  6.0000000000000D-02 -1.1418275042451D-01  1.7556094500660D-01
8  7.0000000000000D-02 -1.3215697811440D-01  2.0394507574030D-01
9  8.0000000000000D-02 -1.4965410166231D-01  2.3193418095411D-01
10  9.0000000000000D-02 -1.6661328899808D-01  2.5947838257314D-01
11  1.0000000000000D-01 -1.8297655161262D-01  2.8653034561070D-01
12  1.1000000000000D-01 -1.9868904653753D-01  3.1304554760248D-01
13  1.2000000000000D-01 -2.1369936004802D-01  3.3898253147499D-01
14  1.3000000000000D-01 -2.2795977138511D-01  3.6430314030197D-01
15  1.4000000000000D-01 -2.4142649489350D-01  3.8897273249272D-01
16  1.5000000000000D-01 -2.5405989908093D-01  4.1296037605502D-01
17  1.6000000000000D-01 -2.6582470122314D-01  4.3623902068095D-01
18  1.7000000000000D-01 -2.7669013626397D-01  4.5878564651756D-01
19  1.8000000000000D-01 -2.8663009889439D-01  4.8058138860384D-01
20  1.9000000000000D-01 -2.9562325783421D-01  5.0161163608187D-01
21  2.0000000000000D-01 -3.0365314148834D-01  5.2186610542207D-01
22  2.1000000000000D-01 -3.1070819430189D-01  5.4133888703984D-01
23  2.2000000000000D-01 -3.1678180329792D-01  5.6002846482294D-01
24  2.3000000000000D-01 -3.2187229444458D-01  5.7793770823537D-01
25  2.4000000000000D-01 -3.2598289866622D-01  5.9507383681335D-01
26  2.5000000000000D-01 -3.2912168748378D-01  6.1144835702165D-01
27  2.6000000000000D-01 -3.3130147844331D-01  6.2707697159375D-01
28  2.7000000000000D-01 -3.3253971066686D-01  6.4197946163564D-01
29  2.8000000000000D-01 -3.3285829103562D-01  6.5617954193027D-01
30  2.9000000000000D-01 -3.3228341169222D-01  6.6970469003727D-01
31  3.0000000000000D-01 -3.3084533972346D-01  6.8258594993863D-01
32  3.1000000000000D-01 -3.2857818005940D-01  6.9485771113616D-01
33  3.2000000000000D-01 -3.2551961279452D-01  7.0655746425905D-01
34  3.3000000000000D-01 -3.2171060630478D-01  7.1772553438872D-01
35  3.4000000000000D-01 -3.1719510769596D-01  7.2840479345354D-01
36  3.5000000000000D-01 -3.1201971227618D-01  7.3864035318592D-01
37  3.6000000000000D-01 -3.0623331389513D-01  7.4847924026841D-01
38  3.7000000000000D-01 -2.9988673813486D-01  7.5797005542312D-01
39  3.8000000000000D-01 -2.9303236047130D-01  7.6716261831867D-01
40  3.9000000000000D-01 -2.8572371164879D-01  7.7610760028046D-01
41  4.0000000000000D-01 -2.7801507262434D-01  7.8485614689253D-01
42  4.1000000000000D-01 -2.6996106153956D-01  7.9345949267157D-01
43  4.2000000000000D-01 -2.6161621526820D-01  8.0196857007559D-01
44  4.3000000000000D-01 -2.5303456816304D-01  8.1043361517965D-01
45  4.4000000000000D-01 -2.4426923068867D-01  8.1890377240959D-01
46  4.5000000000000D-01 -2.3537197067361D-01  8.2742670076975D-01
47  4.6000000000000D-01 -2.2639279994729D-01  8.3604818403281D-01
48  4.7000000000000D-01 -2.1737956914358D-01  8.4481174737834D-01
49  4.8000000000000D-01 -2.0837757345146D-01  8.5375828297037D-01
50  4.9000000000000D-01 -1.9942917207597D-01  8.6292568695366D-01
51  5.0000000000000D-01 -1.9057342413749D-01  8.7234851032311D-01
52  5.1000000000000D-01 -1.8184574368445D-01  8.8205762607958D-01
53  5.2000000000000D-01 -1.7327757642449D-01  8.9207991502972D-01
54  5.3000000000000D-01 -1.6489610069080D-01  9.0243797251649D-01
55  5.4000000000000D-01 -1.5672395505419D-01  9.1314983827970D-01
56  5.5000000000000D-01 -1.4877899486844D-01  9.2422875154569D-01
57  5.6000000000000D-01 -1.4107407989569D-01  9.3568293332773D-01
58  5.7000000000000D-01 -1.3361689500157D-01  9.4751539778913D-01
59  5.8000000000000D-01 -1.2640980573591D-01  9.5972379437550D-01
60  5.9000000000000D-01 -1.1944975042651D-01  9.7230028226511D-01
61  6.0000000000000D-01 -1.1272817020938D-01  9.8523143851533D-01
62  6.1000000000000D-01 -1.0623097820200D-01  9.9849820110019D-01
63  6.2000000000000D-01 -9.9938568795560D-02  1.0120758478405D+00
64  6.3000000000000D-01 -9.3825867801656D-02  1.0259340120239D+00
65  6.4000000000000D-01 -8.7862423936031D-02  1.0400367352991D+00
66  6.5000000000000D-01 -8.2012541862334D-02  1.0543425582074D+00
67  6.6000000000000D-01 -7.6235456750721D-02  1.0688046484873D+00
68  6.7000000000000D-01 -7.0485550032324D-02  1.0833709670539D+00
69  6.8000000000000D-01 -6.4712605752528D-02  1.0979844713189D+00
70  6.9000000000000D-01 -5.8862106647110D-02  1.1125833552761D+00
71  7.0000000000000D-01 -5.2875568783012D-02  1.1271013255363D+00
72  7.1000000000000D-01 -4.6690913326879D-02  1.1414679122561D+00
73  7.2000000000000D-01 -4.0242873727853D-02  1.1556088136640D+00
74  7.3000000000000D-01 -3.3463436330481D-02  1.1694462726556D+00
75  7.4000000000000D-01 -2.6282312168514D-02  1.1828994836953D+00
76  7.5000000000000D-01 -1.8627437435632D-02  1.1958850280428D+00
77  7.6000000000000D-01 -1.0425499884413D-02  1.2083173351051D+00
78  7.7000000000000D-01 -1.6024881736107D-03  1.2201091675100D+00
79  7.8000000000000D-01  7.9157390337237D-03  1.2311721273038D+00
80  7.9000000000000D-01  1.8202867618760D-02  1.2414171804969D+00
81  8.0000000000000D-01  2.9331529782644D-02  1.2507551970097D+00
82  8.1000000000000D-01  4.1372696791771D-02  1.2590975029278D+00
83  8.2000000000000D-01  5.4395066577068D-02  1.2663564418359D+00
84  8.3000000000000D-01  6.8464450189656D-02  1.2724459418876D+00
85  8.4000000000000D-01  8.3643161209323D-02  1.2772820851729D+00
86  8.5000000000000D-01  9.9989412272278D-02  1.2807836758685D+00
87  8.6000000000000D-01  1.1755672292578D-01  1.2828728036037D+00
88  8.7000000000000D-01  1.3639334303433D-01  1.2834753984413D+00
89  8.8000000000000D-01  1.5654169594856D-01  1.2825217738648D+00
90  8.9000000000000D-01  1.7803784560749D-01  1.2799471541777D+00
91  9.0000000000000D-01  2.0091099167558D-01  1.2756921827574D+00
92  9.1000000000000D-01  2.2518299671687D-01  1.2697034076684D+00
93  9.2000000000000D-01  2.5086794928143D-01  1.2619337412244D+00
94  9.3000000000000D-01  2.7797176662482D-01  1.2523428901966D+00
95  9.4000000000000D-01  3.0649184059471D-01  1.2408977535011D+00
96  9.5000000000000D-01  3.3641673001005D-01  1.2275727843473D+00
97  9.6000000000000D-01  3.6772590261910D-01  1.2123503140130D+00
98  9.7000000000000D-01  4.0038952945946D-01  1.1952208346052D+00
99  9.8000000000000D-01  4.3436833415628D-01  1.1761832383859D+00
100  9.9000000000000D-01  4.6961349938466D-01  1.1552450114828D+00
101  1.0000000000000D+00  5.0606663239150D-01  1.1324223800557D+00
102  1.0100000000000D+00  5.4365979111661D-01  1.1077404072721D+00
103  1.0200000000000D+00  5.8231557210226D-01  1.0812330397148D+00
104  1.0300000000000D+00  6.2194726097490D-01  1.0529431021686D+00
105  1.0400000000000D+00  6.6245904590536D-01  1.0229222400273D+00
106  1.0500000000000D+00  7.0374629404401D-01  9.9123080889318D-01
107  1.0600000000000D+00  7.4569589050753D-01  9.5793771127199D-01
108  1.0700000000000D+00  7.8818663908998D-01  9.2312018059525D-01
109  1.0800000000000D+00  8.3108972344979D-01  8.8686351313803D-01
110  1.0900000000000D+00  8.7426922708814D-01  8.4926074875592D-01
111  1.1000000000000D+00  9.1758271004365D-01  8.1041230168254D-01
112  1.1100000000000D+00  9.6088183978300D-01  7.7042554299373D-01
113  1.1200000000000D+00  1.0040130734353D+00  7.2941433661791D-01
114  1.1300000000000D+00  1.0468183880525D+00  6.8749853115737D-01
115  1.1400000000000D+00  1.0891360552555D+00  6.4480341005437D-01
116  1.1500000000000D+00  1.1308014562349D+00  6.0145910296583D-01
117  1.1600000000000D+00  1.1716479328092D+00  5.5759996143444D-01
118  1.1700000000000D+00  1.2115076698502D+00  5.1336390227982D-01
119  1.1800000000000D+00  1.2502126041457D+00  4.6889172234288D-01
120  1.1900000000000D+00  1.2875953544901D+00  4.2432638846411D-01
121  1.2000000000000D+00  1.3234901676287D+00  3.7981230671956D-01
122  1.2100000000000D+00  1.3577338743807D+00  3.3549457521669D-01
123  1.2200000000000D+00  1.3901668501810D+00  2.9151822483867D-01
124  1.2300000000000D+00  1.4206339741565D+00  2.4802745244459D-01
125  1.2400000000000D+00  1.4489855807140D+00  2.0516485118205D-01
126  1.2500000000000D+00  1.4750783976015D+00  1.6307064260558D-01
127  1.2600000000000D+00  1.4987764644053D+00  1.2188191532122D-01
128  1.2700000000000D+00  1.5199520254072D+00  8.1731874932964D-02
129  1.2800000000000D+00  1.5384863908798D+00  4.2749109993729D-02
130  1.2900000000000D+00  1.5542707609616D+00  5.0568786239598D-03
131  1.3000000000000D+00  1.5672070063190D+00 -3.1227579556648D-02
132  1.3100000000000D+00  1.5772084001962D+00 -6.5993701798767D-02
133  1.3200000000000D+00  1.5842002964632D+00 -9.9138226514622D-02
134  1.3300000000000D+00  1.5881207485378D+00 -1.3056577927771D-01
135  1.3400000000000D+00  1.5889210646986D+00 -1.6018941677164D-01
136  1.3500000000000D+00  1.5865662950369D+00 -1.8793112473706D-01
137  1.3600000000000D+00  1.5810356461212D+00 -2.1372226654099D-01
138  1.3700000000000D+00  1.5723228199995D+00 -2.3750397940595D-01
139  1.3800000000000D+00  1.5604362736090D+00 -2.5922751492038D-01
140  1.3900000000000D+00  1.5453993965419D+00 -2.7885452182382D-01
141  1.4000000000000D+00  1.5272506044361D+00 -2.9635726857201D-01
142  1.4100000000000D+00  1.5060433459296D+00 -3.1171880366540D-01
143  1.4200000000000D+00  1.4818460227232D+00 -3.2493305293433D-01
144  1.4300000000000D+00  1.4547418206179D+00 -3.3600485171070D-01
145  1.4400000000000D+00  1.4248284524908D+00 -3.4494991214098D-01
146  1.4500000000000D+00  1.3922178127611D+00 -3.5179472484109D-01
147  1.4600000000000D+00  1.3570355439729D+00 -3.5657639489097D-01
148  1.4700000000000D+00  1.3194205178628D+00 -3.5934241351154D-01
149  1.4800000000000D+00  1.2795242310140D+00 -3.6015036501800D-01
150  1.4900000000000D+00  1.2375101195015D+00 -3.5906757195442D-01
151  1.5000000000000D+00  1.1935527936083D+00 -3.5617067875482D-01
152  1.5100000000000D+00  1.1478371972542D+00 -3.5154517702111D-01
153  1.5200000000000D+00  1.1005576954992D+00 -3.4528487453367D-01
154  1.5300000000000D+00  1.0519170941893D+00 -3.3749131063605D-01
155  1.5400000000000D+00  1.0021255975099D+00 -3.2827312200216D-01
156  1.5500000000000D+00  9.5139970700491D-01 -3.1774536101361D-01
157  1.5600000000000D+00  8.9996106898313D-01 -3.0602877215319D-01
158  1.5700000000000D+00  8.4803527634269D-01 -2.9324902901178D-01
159  1.5800000000000D+00  7.9585062770017D-01 -2.7953593710411D-01
160  1.5900000000000D+00  7.4363686361519D-01 -2.6502260856741D-01
161  1.6000000000000D+00  6.9162392629550D-01 -2.4984461874606D-01
162  1.6100000000000D+00  6.4004039821928D-01 -2.3413909896486D-01
163  1.6200000000000D+00  5.8911237283894D-01 -2.1804388077823D-01
164  1.6300000000000D+00  5.3906287523595D-01 -2.0169670113258D-01
165  1.6400000000000D+00  4.9011113559692D-01 -1.8523440636881D-01
166  1.6500000000000D+00  4.4247212608591D-01 -1.6879221484397D-01
167  1.6600000000000D+00  3.9635563480049D-01 -1.5250291948913D-01
168  1.6700000000000D+00  3.5196490296744D-01 -1.3649604722587D-01
169  1.6800000000000D+00  3.0949555062443D-01 -1.2089706698444D-01
170  1.6900000000000D+00  2.6913453084509D-01 -1.0582661535746D-01
171  1.7000000000000D+00  2.3105907871693D-01 -9.1399743109936D-02
172  1.7100000000000D+00  1.9543572262850D-01 -7.7725192222278D-02
173  1.7200000000000D+00  1.6241933677193D-01 -6.4904705519815D-02
174  1.7300000000000D+00  1.3215224756538D-01 -5.3032372778526D-02
175  1.7400000000000D+00  1.0476339835149D-01 -4.2194017934242D-02
176  1.7500000000000D+00  8.0367575329808D-02 -3.2466629800067D-02
177  1.7600000000000D+00  5.9073795327178D-02 -2.3921493886866D-02
178  1.7700000000000D+00  4.0953715963712D-02 -1.6611287978669D-02
179  1.7800000000000D+00  2.6019254646212D-02 -1.0560934535920D-02
180  1.7900000000000D+00  1.4379059029431D-02 -5.8301913752286D-03
181  1.8000000000000D+00  6.2932505221811D-03 -2.5351952858164D-03
182  1.8100000000000D+00  1.6761920380899D-03 -6.4930172822711D-04
183  1.8200000000000D+00 -2.6111041464258D-04  1.3837802904218D-04
184  1.8300000000000D+00 -4.9665634736746D-04  2.2014911177932D-04
185  1.8400000000000D+00 -6.6533241416213D-05  2.8969435576743D-05
186  1.8500000000000D+00  1.4290921853939D-04 -6.1805197346453D-05
187  1.8600000000000D+00  6.1282405385699D-05 -2.6392888777736D-05
188  1.8700000000000D+00 -2.3178186989809D-05  1.0119279974580D-05
189  1.8800000000000D+00 -1.9238593108059D-05  8.3746588937377D-06
190  1.8900000000000D+00  3.8262341587317D-07 -2.1077397279412D-07
191  1.9000000000000D+00  5.7471850202209D-07 -3.1659249508564D-07
192  1.9100000000000D+00  0.0000000000000D+00  0.0000000000000D+00
193  1.9200000000000D+00  0.0000000000000D+00  0.0000000000000D+00
194  1.9300000000000D+00  0.0000000000000D+00  0.0000000000000D+00
195  1.9400000000000D+00  0.0000000000000D+00  0.0000000000000D+00
196  1.9500000000000D+00  0.0000000000000D+00  0.0000000000000D+00
197  1.9600000000000D+00  0.0000000000000D+00  0.0000000000000D+00
198  1.9700000000000D+00  0.0000000000000D+00  0.0000000000000D+00
199  1.9800000000000D+00  0.0000000000000D+00  0.0000000000000D+00
200  1.9900000000000D+00  0.0000000000000D+00  0.0000000000000D+00
201  2.0000000000000D+00  0.0000000000000D+00  0.0000000000000D+00
202  2.0100000000000D+00  0.0000000000000D+00  0.0000000000000D+00
203  2.0200000000000D+00  0.0000000000000D+00  0.0000000000000D+00
204  2.0300000000000D+00  0.0000000000000D+00  0.0000000000000D+00
205  2.0400000000000D+00  0.0000000000000D+00  0.0000000000000D+00
206  2.0500000000000D+00  0.0000000000000D+00  0.0000000000000D+00
207  2.0600000000000D+00  0.0000000000000D+00  0.0000000000000D+00
208  2.0700000000000D+00  0.0000000000000D+00  0.0000000000000D+00
209  2.0800000000000D+00  0.0000000000000D+00  0.0000000000000D+00
210  2.0900000000000D+00  0.0000000000000D+00  0.0000000000000D+00
211  2.1000000000000D+00  0.0000000000000D+00  0.0000000000000D+00
212  2.1100000000000D+00  0.0000000000000D+00  0.0000000000000D+00
213  2.1200000000000D+00  0.0000000000000D+00  0.0000000000000D+00
214  2.1300000000000D+00  0.0000000000000D+00  0.0000000000000D+00
215  2.1400000000000D+00  0.0000000000000D+00  0.0000000000000D+00
216  2.1500000000000D+00  0.0000000000000D+00  0.0000000000000D+00
217  2.1600000000000D+00  0.0000000000000D+00  0.0000000000000D+00
218  2.1700000000000D+00  0.0000000000000D+00  0.0000000000000D+00
219  2.1800000000000D+00  0.0000000000000D+00  0.0000000000000D+00
220  2.1900000000000D+00  0.0000000000000D+00  0.0000000000000D+00
221  2.2000000000000D+00  0.0000000000000D+00  0.0000000000000D+00
222  2.2100000000000D+00  0.0000000000000D+00  0.0000000000000D+00
223  2.2200000000000D+00  0.0000000000000D+00  0.0000000000000D+00
224  2.2300000000000D+00  0.0000000000000D+00  0.0000000000000D+00
225  2.2400000000000D+00  0.0000000000000D+00  0.0000000000000D+00
226  2.2500000000000D+00  0.0000000000000D+00  0.0000000000000D+00
227  2.2600000000000D+00  0.0000000000000D+00  0.0000000000000D+00
228  2.2700000000000D+00  0.0000000000000D+00  0.0000000000000D+00
229  2.2800000000000D+00  0.0000000000000D+00  0.0000000000000D+00
230  2.2900000000000D+00  0.0000000000000D+00  0.0000000000000D+00
231  2.3000000000000D+00  0.0000000000000D+00  0.0000000000000D+00
232  2.3100000000000D+00  0.0000000000000D+00  0.0000000000000D+00
233  2.3200000000000D+00  0.0000000000000D+00  0.0000000000000D+00
234  2.3300000000000D+00  0.0000000000000D+00  0.0000000000000D+00
235  2.3400000000000D+00  0.0000000000000D+00  0.0000000000000D+00
236  2.3500000000000D+00  0.0000000000000D+00  0.0000000000000D+00
237  2.3600000000000D+00  0.0000000000000D+00  0.0000000000000D+00
238  2.3700000000000D+00  0.0000000000000D+00  0.0000000000000D+00
239  2.3800000000000D+00  0.0000000000000D+00  0.0000000000000D+00
240  2.3900000000000D+00  0.0000000000000D+00  0.0000000000000D+00
241  2.4000000000000D+00  0.0000000000000D+00  0.0000000000000D+00
242  2.4100000000000D+00  0.0000000000000D+00  0.0000000000000D+00
243  2.4200000000000D+00  0.0000000000000D+00  0.0000000000000D+00
244  2.4300000000000D+00  0.0000000000000D+00  0.0000000000000D+00
245  2.4400000000000D+00  0.0000000000000D+00  0.0000000000000D+00
246  2.4500000000000D+00  0.0000000000000D+00  0.0000000000000D+00
247  2.4600000000000D+00  0.0000000000000D+00  0.0000000000000D+00
248  2.4700000000000D+00  0.0000000000000D+00  0.0000000000000D+00
249  2.4800000000000D+00  0.0000000000000D+00  0.0000000000000D+00
250  2.4900000000000D+00  0.0000000000000D+00  0.0000000000000D+00
251  2.5000000000000D+00  0.0000000000000D+00  0.0000000000000D+00
252  2.5100000000000D+00  0.0000000000000D+00  0.0000000000000D+00
253  2.5200000000000D+00  0.0000000000000D+00  0.0000000000000D+00
254  2.5300000000000D+00  0.0000000000000D+00  0.0000000000000D+00
255  2.5400000000000D+00  0.0000000000000D+00  0.0000000000000D+00
256  2.5500000000000D+00  0.0000000000000D+00  0.0000000000000D+00
257  2.5600000000000D+00  0.0000000000000D+00  0.0000000000000D+00
258  2.5700000000000D+00  0.0000000000000D+00  0.0000000000000D+00
259  2.5800000000000D+00  0.0000000000000D+00  0.0000000000000D+00
260  2.5900000000000D+00  0.0000000000000D+00  0.0000000000000D+00
261  2.6000000000000D+00  0.0000000000000D+00  0.0000000000000D+00
262  2.6100000000000D+00  0.0000000000000D+00  0.0000000000000D+00
263  2.6200000000000D+00  0.0000000000000D+00  0.0000000000000D+00
264  2.6300000000000D+00  0.0000000000000D+00  0.0000000000000D+00
265  2.6400000000000D+00  0.0000000000000D+00  0.0000000000000D+00
266  2.6500000000000D+00  0.0000000000000D+00  0.0000000000000D+00
267  2.6600000000000D+00  0.0000000000000D+00  0.0000000000000D+00
268  2.6700000000000D+00  0.0000000000000D+00  0.0000000000000D+00
269  2.6800000000000D+00  0.0000000000000D+00  0.0000000000000D+00
270  2.6900000000000D+00  0.0000000000000D+00  0.0000000000000D+00
271  2.7000000000000D+00  0.0000000000000D+00  0.0000000000000D+00
272  2.7100000000000D+00  0.0000000000000D+00  0.0000000000000D+00
273  2.7200000000000D+00  0.0000000000000D+00  0.0000000000000D+00
274  2.7300000000000D+00  0.0000000000000D+00  0.0000000000000D+00
275  2.7400000000000D+00  0.0000000000000D+00  0.0000000000000D+00
276  2.7500000000000D+00  0.0000000000000D+00  0.0000000000000D+00
277  2.7600000000000D+00  0.0000000000000D+00  0.0000000000000D+00
278  2.7700000000000D+00  0.0000000000000D+00  0.0000000000000D+00
279  2.7800000000000D+00  0.0000000000000D+00  0.0000000000000D+00
280  2.7900000000000D+00  0.0000000000000D+00  0.0000000000000D+00
281  2.8000000000000D+00  0.0000000000000D+00  0.0000000000000D+00
282  2.8100000000000D+00  0.0000000000000D+00  0.0000000000000D+00
283  2.8200000000000D+00  0.0000000000000D+00  0.0000000000000D+00
284  2.8300000000000D+00  0.0000000000000D+00  0.0000000000000D+00
285  2.8400000000000D+00  0.0000000000000D+00  0.0000000000000D+00
286  2.8500000000000D+00  0.0000000000000D+00  0.0000000000000D+00
287  2.8600000000000D+00  0.0000000000000D+00  0.0000000000000D+00
288  2.8700000000000D+00  0.0000000000000D+00  0.0000000000000D+00
289  2.8800000000000D+00  0.0000000000000D+00  0.0000000000000D+00
290  2.8900000000000D+00  0.0000000000000D+00  0.0000000000000D+00
291  2.9000000000000D+00  0.0000000000000D+00  0.0000000000000D+00
292  2.9100000000000D+00  0.0000000000000D+00  0.0000000000000D+00
293  2.9200000000000D+00  0.0000000000000D+00  0.0000000000000D+00
294  2.9300000000000D+00  0.0000000000000D+00  0.0000000000000D+00
295  2.9400000000000D+00  0.0000000000000D+00  0.0000000000000D+00
296  2.9500000000000D+00  0.0000000000000D+00  0.0000000000000D+00
297  2.9600000000000D+00  0.0000000000000D+00  0.0000000000000D+00
298  2.9700000000000D+00  0.0000000000000D+00  0.0000000000000D+00
299  2.9800000000000D+00  0.0000000000000D+00  0.0000000000000D+00
300  2.9900000000000D+00  0.0000000000000D+00  0.0000000000000D+00
301  3.0000000000000D+00  0.0000000000000D+00  0.0000000000000D+00
302  3.0100000000000D+00  0.0000000000000D+00  0.0000000000000D+00
303  3.0200000000000D+00  0.0000000000000D+00  0.0000000000000D+00
304  3.0300000000000D+00  0.0000000000000D+00  0.0000000000000D+00
305  3.0400000000000D+00  0.0000000000000D+00  0.0000000000000D+00
306  3.0500000000000D+00  0.0000000000000D+00  0.0000000000000D+00
307  3.0600000000000D+00  0.0000000000000D+00  0.0000000000000D+00
308  3.0700000000000D+00  0.0000000000000D+00  0.0000000000000D+00
309  3.0800000000000D+00  0.0000000000000D+00  0.0000000000000D+00
310  3.0900000000000D+00  0.0000000000000D+00  0.0000000000000D+00
311  3.1000000000000D+00  0.0000000000000D+00  0.0000000000000D+00
312  3.1100000000000D+00  0.0000000000000D+00  0.0000000000000D+00
313  3.1200000000000D+00  0.0000000000000D+00  0.0000000000000D+00
314  3.1300000000000D+00  0.0000000000000D+00  0.0000000000000D+00
315  3.1400000000000D+00  0.0000000000000D+00  0.0000000000000D+00
316  3.1500000000000D+00  0.0000000000000D+00  0.0000000000000D+00
317  3.1600000000000D+00  0.0000000000000D+00  0.0000000000000D+00
318  3.1700000000000D+00  0.0000000000000D+00  0.0000000000000D+00
319  3.1800000000000D+00  0.0000000000000D+00  0.0000000000000D+00
320  3.1900000000000D+00  0.0000000000000D+00  0.0000000000000D+00
321  3.2000000000000D+00  0.0000000000000D+00  0.0000000000000D+00
322  3.2100000000000D+00  0.0000000000000D+00  0.0000000000000D+00
323  3.2200000000000D+00  0.0000000000000D+00  0.0000000000000D+00
324  3.2300000000000D+00  0.0000000000000D+00  0.0000000000000D+00
325  3.2400000000000D+00  0.0000000000000D+00  0.0000000000000D+00
326  3.2500000000000D+00  0.0000000000000D+00  0.0000000000000D+00
327  3.2600000000000D+00  0.0000000000000D+00  0.0000000000000D+00
328  3.2700000000000D+00  0.0000000000000D+00  0.0000000000000D+00
329  3.2800000000000D+00  0.0000000000000D+00  0.0000000000000D+00
330  3.2900000000000D+00  0.0000000000000D+00  0.0000000000000D+00
331  3.3000000000000D+00  0.0000000000000D+00  0.0000000000000D+00
332  3.3100000000000D+00  0.0000000000000D+00  0.0000000000000D+00
333  3.3200000000000D+00  0.0000000000000D+00  0.0000000000000D+00
334  3.3300000000000D+00  0.0000000000000D+00  0.0000000000000D+00
335  3.3400000000000D+00  0.0000000000000D+00  0.0000000000000D+00
336  3.3500000000000D+00  0.0000000000000D+00  0.0000000000000D+00
337  3.3600000000000D+00  0.0000000000000D+00  0.0000000000000D+00
338  3.3700000000000D+00  0.0000000000000D+00  0.0000000000000D+00
339  3.3800000000000D+00  0.0000000000000D+00  0.0000000000000D+00
340  3.3900000000000D+00  0.0000000000000D+00  0.0000000000000D+00
341  3.4000000000000D+00  0.0000000000000D+00  0.0000000000000D+00
342  3.4100000000000D+00  0.0000000000000D+00  0.0000000000000D+00
343  3.4200000000000D+00  0.0000000000000D+00  0.0000000000000D+00
344  3.4300000000000D+00  0.0000000000000D+00  0.0000000000000D+00
345  3.4400000000000D+00  0.0000000000000D+00  0.0000000000000D+00
346  3.4500000000000D+00  0.0000000000000D+00  0.0000000000000D+00
347  3.4600000000000D+00  0.0000000000000D+00  0.0000000000000D+00
348  3.4700000000000D+00  0.0000000000000D+00  0.0000000000000D+00
349  3.4800000000000D+00  0.0000000000000D+00  0.0000000000000D+00
350  3.4900000000000D+00  0.0000000000000D+00  0.0000000000000D+00
351  3.5000000000000D+00  0.0000000000000D+00  0.0000000000000D+00
352  3.5100000000000D+00  0.0000000000000D+00  0.0000000000000D+00
353  3.5200000000000D+00  0.0000000000000D+00  0.0000000000000D+00
354  3.5300000000000D+00  0.0000000000000D+00  0.0000000000000D+00
355  3.5400000000000D+00  0.0000000000000D+00  0.0000000000000D+00
356  3.5500000000000D+00  0.0000000000000D+00  0.0000000000000D+00
357  3.5600000000000D+00  0.0000000000000D+00  0.0000000000000D+00
358  3.5700000000000D+00  0.0000000000000D+00  0.0000000000000D+00
359  3.5800000000000D+00  0.0000000000000D+00  0.0000000000000D+00
360  3.5900000000000D+00  0.0000000000000D+00  0.0000000000000D+00
361  3.6000000000000D+00  0.0000000000000D+00  0.0000000000000D+00
362  3.6100000000000D+00  0.0000000000000D+00  0.0000000000000D+00
363  3.6200000000000D+00  0.0000000000000D+00  0.0000000000000D+00
364  3.6300000000000D+00  0.0000000000000D+00  0.0000000000000D+00
365  3.6400000000000D+00  0.0000000000000D+00  0.0000000000000D+00
366  3.6500000000000D+00  0.0000000000000D+00  0.0000000000000D+00
367  3.6600000000000D+00  0.0000000000000D+00  0.0000000000000D+00
368  3.6700000000000D+00  0.0000000000000D+00  0.0000000000000D+00
369  3.6800000000000D+00  0.0000000000000D+00  0.0000000000000D+00
370  3.6900000000000D+00  0.0000000000000D+00  0.0000000000000D+00
371  3.7000000000000D+00  0.0000000000000D+00  0.0000000000000D+00
372  3.7100000000000D+00  0.0000000000000D+00  0.0000000000000D+00
373  3.7200000000000D+00  0.0000000000000D+00  0.0000000000000D+00
374  3.7300000000000D+00  0.0000000000000D+00  0.0000000000000D+00
375  3.7400000000000D+00  0.0000000000000D+00  0.0000000000000D+00
376  3.7500000000000D+00  0.0000000000000D+00  0.0000000000000D+00
377  3.7600000000000D+00  0.0000000000000D+00  0.0000000000000D+00
378  3.7700000000000D+00  0.0000000000000D+00  0.0000000000000D+00
379  3.7800000000000D+00  0.0000000000000D+00  0.0000000000000D+00
380  3.7900000000000D+00  0.0000000000000D+00  0.0000000000000D+00
381  3.8000000000000D+00  0.0000000000000D+00  0.0000000000000D+00
382  3.8100000000000D+00  0.0000000000000D+00  0.0000000000000D+00
383  3.8200000000000D+00  0.0000000000000D+00  0.0000000000000D+00
384  3.8300000000000D+00  0.0000000000000D+00  0.0000000000000D+00
385  3.8400000000000D+00  0.0000000000000D+00  0.0000000000000D+00
386  3.8500000000000D+00  0.0000000000000D+00  0.0000000000000D+00
387  3.8600000000000D+00  0.0000000000000D+00  0.0000000000000D+00
388  3.8700000000000D+00  0.0000000000000D+00  0.0000000000000D+00
389  3.8800000000000D+00  0.0000000000000D+00  0.0000000000000D+00
390  3.8900000000000D+00  0.0000000000000D+00  0.0000000000000D+00
391  3.9000000000000D+00  0.0000000000000D+00  0.0000000000000D+00
392  3.9100000000000D+00  0.0000000000000D+00  0.0000000000000D+00
393  3.9200000000000D+00  0.0000000000000D+00  0.0000000000000D+00
394  3.9300000000000D+00  0.0000000000000D+00  0.0000000000000D+00
395  3.9400000000000D+00  0.0000000000000D+00  0.0000000000000D+00
396  3.9500000000000D+00  0.0000000000000D+00  0.0000000000000D+00
397  3.9600000000000D+00  0.0000000000000D+00  0.0000000000000D+00
398  3.9700000000000D+00  0.0000000000000D+00  0.0000000000000D+00
399  3.9800000000000D+00  0.0000000000000D+00  0.0000000000000D+00
400  3.9900000000000D+00  0.0000000000000D+00  0.0000000000000D+00
401  4.0000000000000D+00  0.0000000000000D+00  0.0000000000000D+00
402  4.0100000000000D+00  0.0000000000000D+00  0.0000000000000D+00
403  4.0200000000000D+00  0.0000000000000D+00  0.0000000000000D+00
404  4.0300000000000D+00  0.0000000000000D+00  0.0000000000000D+00
405  4.0400000000000D+00  0.0000000000000D+00  0.0000000000000D+00
406  4.0500000000000D+00  0.0000000000000D+00  0.0000000000000D+00
407  4.0600000000000D+00  0.0000000000000D+00  0.0000000000000D+00
408  4.0700000000000D+00  0.0000000000000D+00  0.0000000000000D+00
409  4.0800000000000D+00  0.0000000000000D+00  0.0000000000000D+00
410  4.0900000000000D+00  0.0000000000000D+00  0.0000000000000D+00
411  4.1000000000000D+00  0.0000000000000D+00  0.0000000000000D+00
412  4.1100000000000D+00  0.0000000000000D+00  0.0000000000000D+00
413  4.1200000000000D+00  0.0000000000000D+00  0.0000000000000D+00
414  4.1300000000000D+00  0.0000000000000D+00  0.0000000000000D+00
415  4.1400000000000D+00  0.0000000000000D+00  0.0000000000000D+00
416  4.1500000000000D+00  0.0000000000000D+00  0.0000000000000D+00
417  4.1600000000000D+00  0.0000000000000D+00  0.0000000000000D+00
418  4.1700000000000D+00  0.0000000000000D+00  0.0000000000000D+00
419  4.1800000000000D+00  0.0000000000000D+00  0.0000000000000D+00
420  4.1900000000000D+00  0.0000000000000D+00  0.0000000000000D+00
421  4.2000000000000D+00  0.0000000000000D+00  0.0000000000000D+00
422  4.2100000000000D+00  0.0000000000000D+00  0.0000000000000D+00
423  4.2200000000000D+00  0.0000000000000D+00  0.0000000000000D+00
424  4.2300000000000D+00  0.0000000000000D+00  0.0000000000000D+00
425  4.2400000000000D+00  0.0000000000000D+00  0.0000000000000D+00
426  4.2500000000000D+00  0.0000000000000D+00  0.0000000000000D+00
427  4.2600000000000D+00  0.0000000000000D+00  0.0000000000000D+00
428  4.2700000000000D+00  0.0000000000000D+00  0.0000000000000D+00
429  4.2800000000000D+00  0.0000000000000D+00  0.0000000000000D+00
430  4.2900000000000D+00  0.0000000000000D+00  0.0000000000000D+00
431  4.3000000000000D+00  0.0000000000000D+00  0.0000000000000D+00
432  4.3100000000000D+00  0.0000000000000D+00  0.0000000000000D+00
433  4.3200000000000D+00  0.0000000000000D+00  0.0000000000000D+00
434  4.3300000000000D+00  0.0000000000000D+00  0.0000000000000D+00
435  4.3400000000000D+00  0.0000000000000D+00  0.0000000000000D+00
436  4.3500000000000D+00  0.0000000000000D+00  0.0000000000000D+00
437  4.3600000000000D+00  0.0000000000000D+00  0.0000000000000D+00
438  4.3700000000000D+00  0.0000000000000D+00  0.0000000000000D+00
439  4.3800000000000D+00  0.0000000000000D+00  0.0000000000000D+00
440  4.3900000000000D+00  0.0000000000000D+00  0.0000000000000D+00
441  4.4000000000000D+00  0.0000000000000D+00  0.0000000000000D+00
442  4.4100000000000D+00  0.0000000000000D+00  0.0000000000000D+00
443  4.4200000000000D+00  0.0000000000000D+00  0.0000000000000D+00