Se    ONCVPSP-3.3.0  r_core=   1.81943   1.50330   1.90835
34.0000     16.0000      180430    zatom,zion,pspd
8 -116133   2     4   600     0    pspcod,pspxc,lmax,lloc,mmax,r2well
5.99000000  5.00000000  0.00000000    rchrg fchrg qchrg
2     3     2     0    nproj
3     1           extension_switch
4     2     0    nprojso
0                         1.0191359307932D+00  8.9735192054354D+00
1  0.0000000000000D+00 -1.1024292589923D-11  3.7023828447502D-11
2  1.0000000000000D-02 -1.8311830814011D-02  3.6291332914260D-02
3  2.0000000000000D-02 -3.6606440031544D-02  7.2575872751309D-02
4  3.0000000000000D-02 -5.4866481626020D-02  1.0884665547967D-01
5  4.0000000000000D-02 -7.3074361596872D-02  1.4509637652774D-01
6  5.0000000000000D-02 -9.1212116195373D-02  1.8131722392520D-01
7  6.0000000000000D-02 -1.0926129279818D-01  2.1750071551202D-01
8  7.0000000000000D-02 -1.2720283429834D-01  2.5363754152707D-01
9  8.0000000000000D-02 -1.4501696787250D-01  2.8971741385156D-01
10  9.0000000000000D-02 -1.6268309896906D-01  3.2572892313656D-01
11  1.0000000000000D-01 -1.8017971134519D-01  3.6165940498957D-01
12  1.1000000000000D-01 -1.9748427396097D-01  3.9749481633263D-01
13  1.2000000000000D-01 -2.1457315551565D-01  4.3321962297450D-01
14  1.3000000000000D-01 -2.3142154738546D-01  4.6881669936189D-01
15  1.4000000000000D-01 -2.4800339569283D-01  5.0426724139092D-01
16  1.5000000000000D-01 -2.6429134320439D-01  5.3955069306976D-01
17  1.6000000000000D-01 -2.8025668171942D-01  5.7464468772774D-01
18  1.7000000000000D-01 -2.9586931557071D-01  6.0952500436589D-01
19  1.8000000000000D-01 -3.1109773681722D-01  6.4416553963910D-01
20  1.9000000000000D-01 -3.2590901266138D-01  6.7853829585202D-01
21  2.0000000000000D-01 -3.4026878557392D-01  7.1261338524006D-01
22  2.1000000000000D-01 -3.5414128655545D-01  7.4635905069403D-01
23  2.2000000000000D-01 -3.6748936190686D-01  7.7974170297302D-01
24  2.3000000000000D-01 -3.8027451382010D-01  8.1272597433579D-01
25  2.4000000000000D-01 -3.9245695503603D-01  8.4527478840687D-01
26  2.5000000000000D-01 -4.0399567774929D-01  8.7734944598078D-01
27  2.6000000000000D-01 -4.1484853686828D-01  9.0890972635683D-01
28  2.7000000000000D-01 -4.2497234766500D-01  9.3991400368885D-01
29  2.8000000000000D-01 -4.3432299777201D-01  9.7031937772913D-01
30  2.9000000000000D-01 -4.4285557340422D-01  1.0000818182456D+00
31  3.0000000000000D-01 -4.5052449960110D-01  1.0291563222949D+00
32  3.1000000000000D-01 -4.5728369420034D-01  1.0574970834446D+00
33  3.2000000000000D-01 -4.6308673516801D-01  1.0850576719524D+00
34  3.3000000000000D-01 -4.6788704082264D-01  1.1117912248335D+00
35  3.4000000000000D-01 -4.7163806240195D-01  1.1376506446775D+00
36  3.5000000000000D-01 -4.7429348833195D-01  1.1625888060116D+00
37  3.6000000000000D-01 -4.7580745946869D-01  1.1865587679552D+00
38  3.7000000000000D-01 -4.7613479449440D-01  1.2095139918634D+00
39  3.8000000000000D-01 -4.7523122456165D-01  1.2314085626185D+00
40  3.9000000000000D-01 -4.7305363619329D-01  1.2521974122052D+00
41  4.0000000000000D-01 -4.6956032136161D-01  1.2718365441800D+00
42  4.1000000000000D-01 -4.6471123358911D-01  1.2902832576417D+00
43  4.2000000000000D-01 -4.5846824883532D-01  1.3074963693058D+00
44  4.3000000000000D-01 -4.5079542986063D-01  1.3234364322975D+00
45  4.4000000000000D-01 -4.4165929268876D-01  1.3380659502955D+00
46  4.5000000000000D-01 -4.3102907372643D-01  1.3513495856864D+00
47  4.6000000000000D-01 -4.1887699604071D-01  1.3632543604273D+00
48  4.7000000000000D-01 -4.0517853324420D-01  1.3737498483601D+00
49  4.8000000000000D-01 -3.8991266939414D-01  1.3828083577719D+00
50  4.9000000000000D-01 -3.7306215327658D-01  1.3904051030621D+00
51  5.0000000000000D-01 -3.5461374541877D-01  1.3965183644419D+00
52  5.1000000000000D-01 -3.3455845615562D-01  1.4011296346718D+00
53  5.2000000000000D-01 -3.1289177306678D-01  1.4042237519217D+00
54  5.3000000000000D-01 -2.8961387610251D-01  1.4057890179296D+00
55  5.4000000000000D-01 -2.6472983872837D-01  1.4058173007277D+00
56  5.5000000000000D-01 -2.3824981344057D-01  1.4043041213010D+00
57  5.6000000000000D-01 -2.1018920003755D-01  1.4012487236487D+00
58  5.7000000000000D-01 -1.8056879507786D-01  1.3966541278200D+00
59  5.8000000000000D-01 -1.4941492100974D-01  1.3905271656057D+00
60  5.9000000000000D-01 -1.1675953352536D-01  1.3828784986745D+00
61  6.0000000000000D-01 -8.2640305770957D-02  1.3737226190518D+00
62  6.1000000000000D-01 -4.7100688133356D-02  1.3630778319490D+00
63  6.2000000000000D-01 -1.0189942424880D-02  1.3509662210590D+00
64  6.3000000000000D-01  2.8036850601106D-02  1.3374135965414D+00
65  6.4000000000000D-01  6.7518811349051D-02  1.3224494260225D+00
66  6.5000000000000D-01  1.0818930990831D-01  1.3061067490413D+00
67  6.6000000000000D-01  1.4997604368166D-01  1.2884220754644D+00
68  6.7000000000000D-01  1.9280114463793D-01  1.2694352684917D+00
69  6.8000000000000D-01  2.3658131655430D-01  1.2491894129562D+00
70  6.9000000000000D-01  2.8122800244910D-01  1.2277306697103D+00
71  7.0000000000000D-01  3.2664758223414D-01  1.2051081169608D+00
72  7.1000000000000D-01  3.7274160043943D-01  1.1813735794885D+00
73  7.2000000000000D-01  4.1940702368224D-01  1.1565814467476D+00
74  7.3000000000000D-01  4.6653652736815D-01  1.1307884808961D+00
75  7.4000000000000D-01  5.1401881092582D-01  1.1040536158550D+00
76  7.5000000000000D-01  5.6173894068936D-01  1.0764377485326D+00
77  7.6000000000000D-01  6.0957871935621D-01  1.0480035233795D+00
78  7.7000000000000D-01  6.5741708076250D-01  1.0188151114650D+00
79  7.8000000000000D-01  7.0513050853572D-01  9.8893798527539D-01
80  7.9000000000000D-01  7.5259347700655D-01  9.5843869044286D-01
81  8.0000000000000D-01  7.9967891258852D-01  9.2738461560979D-01
82  8.1000000000000D-01  8.4625867366906D-01  8.9584376162122D-01
83  8.2000000000000D-01  8.9220404689691D-01  8.6388451122058D-01
84  8.3000000000000D-01  9.3738625760300D-01  8.3157540039613D-01
85  8.4000000000000D-01  9.8167699195413D-01  7.9898489249201D-01
86  8.5000000000000D-01  1.0249489283125D+00  7.6618115615674D-01
87  8.6000000000000D-01  1.0670762751614D+00  7.3323184815481D-01
88  8.7000000000000D-01  1.1079353128586D+00  7.0020390201358D-01
89  8.8000000000000D-01  1.1474049363936D+00  6.6716332341926D-01
90  8.9000000000000D-01  1.1853671962590D+00  6.3417499321201D-01
91  9.0000000000000D-01  1.2217078344925D+00  6.0130247876259D-01
92  9.1000000000000D-01  1.2563168129135D+00  5.6860785444177D-01
93  9.2000000000000D-01  1.2890888305620D+00  5.3615153181890D-01
94  9.3000000000000D-01  1.3199238273488D+00  5.0399210015057D-01
95  9.4000000000000D-01  1.3487274709500D+00  4.7218617764104D-01
96  9.5000000000000D-01  1.3754116240155D+00  4.4078827387760D-01
97  9.6000000000000D-01  1.3998947888244D+00  4.0985066376497D-01
98  9.7000000000000D-01  1.4221025265960D+00  3.7942327320333D-01
99  9.8000000000000D-01  1.4419678487656D+00  3.4955357667743D-01
100  9.9000000000000D-01  1.4594315776477D+00  3.2028650684760D-01
101  1.0000000000000D+00  1.4744426740451D+00  2.9166437616019D-01
102  1.0100000000000D+00  1.4869585295182D+00  2.6372681042246D-01
103  1.0200000000000D+00  1.4969452211872D+00  2.3651069422272D-01
104  1.0300000000000D+00  1.5043777271380D+00  2.1005012800833D-01
105  1.0400000000000D+00  1.5092401006933D+00  1.8437639657776D-01
106  1.0500000000000D+00  1.5115256020270D+00  1.5951794868704D-01
107  1.0600000000000D+00  1.5112367858302D+00  1.3550038742058D-01
108  1.0700000000000D+00  1.5083855439690D+00  1.1234647093285D-01
109  1.0800000000000D+00  1.5029931023182D+00  9.0076123127946D-02
110  1.0900000000000D+00  1.4950899712276D+00  6.8706453809053D-02
111  1.1000000000000D+00  1.4847158493185D+00  4.8251787803981D-02
112  1.1100000000000D+00  1.4719194806055D+00  2.8723702549549D-02
113  1.1200000000000D+00  1.4567584651603D+00  1.0131073602902D-02
114  1.1300000000000D+00  1.4392990238589D+00 -7.5198724654395D-03
115  1.1400000000000D+00  1.4196157179926D+00 -2.4225498345460D-02
116  1.1500000000000D+00  1.3977911248235D+00 -3.9984689976340D-02
117  1.1600000000000D+00  1.3739154703728D+00 -5.4798784794964D-02
118  1.1700000000000D+00  1.3480862210529D+00 -6.8671494778332D-02
119  1.1800000000000D+00  1.3204076359745D+00 -8.1608824799567D-02
120  1.1900000000000D+00  1.2909902820307D+00 -9.3618986795260D-02
121  1.2000000000000D+00  1.2599505140066D+00 -1.0471231023172D-01
122  1.2100000000000D+00  1.2274099223035D+00 -1.1490114931857D-01
123  1.2200000000000D+00  1.1934947510014D+00 -1.2419978739520D-01
124  1.2300000000000D+00  1.1583352891461D+00 -1.3262433889312D-01
125  1.2400000000000D+00  1.1220652383732D+00 -1.4019264923819D-01
126  1.2500000000000D+00  1.0848210601284D+00 -1.4692419302003D-01
127  1.2600000000000D+00  1.0467413058280D+00 -1.5283997073342D-01
128  1.2700000000000D+00  1.0079659334520D+00 -1.5796240436224D-01
129  1.2800000000000D+00  9.6863561416904D-01 -1.6231523202710D-01
130  1.2900000000000D+00  9.2889103260489D-01 -1.6592340190651D-01
131  1.3000000000000D+00  8.8887218446189D-01 -1.6881296560641D-01
132  1.3100000000000D+00  8.4871767519713D-01 -1.7101097110459D-01
133  1.3200000000000D+00  8.0856402344952D-01 -1.7254535539925D-01
134  1.3300000000000D+00  7.6854497294342D-01 -1.7344483694954D-01
135  1.3400000000000D+00  7.2879081643029D-01 -1.7373880796748D-01
136  1.3500000000000D+00  6.8942773530107D-01 -1.7345722662969D-01
137  1.3600000000000D+00  6.5057715834000D-01 -1.7263050923268D-01
138  1.3700000000000D+00  6.1235514283589D-01 -1.7128942232356D-01
139  1.3800000000000D+00  5.7487178152683D-01 -1.6946497482766D-01
140  1.3900000000000D+00  5.3823063817630D-01 -1.6718831018400D-01
141  1.4000000000000D+00  5.0252821477856D-01 -1.6449059851545D-01
142  1.4100000000000D+00  4.6785345322467D-01 -1.6140292883894D-01
143  1.4200000000000D+00  4.3428727350469D-01 -1.5795620137586D-01
144  1.4300000000000D+00  4.0190215127850D-01 -1.5418101996854D-01
145  1.4400000000000D+00  3.7076173631165D-01 -1.5010758469579D-01
146  1.4500000000000D+00  3.4092051380211D-01 -1.4576558475527D-01
147  1.4600000000000D+00  3.1242350633631D-01 -1.4118409092203D-01
148  1.4700000000000D+00  2.8530603508032D-01 -1.3639145117201D-01
149  1.4800000000000D+00  2.5959350404458D-01 -1.3141518256264D-01
150  1.4900000000000D+00  2.3530138271111D-01 -1.2628189351998D-01
151  1.5000000000000D+00  2.1243461708857D-01 -1.2101708490012D-01
152  1.5100000000000D+00  1.9098810315601D-01 -1.1564515338373D-01
153  1.5200000000000D+00  1.7094829322372D-01 -1.1018960103732D-01
154  1.5300000000000D+00  1.5229450138956D-01 -1.0467321289002D-01
155  1.5400000000000D+00  1.3500067654190D-01 -9.9118335183469D-02
156  1.5500000000000D+00  1.1903561050310D-01 -9.3546844165429D-02
157  1.5600000000000D+00  1.0436293127989D-01 -8.7980075604629D-02
158  1.5700000000000D+00  9.0941669118554D-02 -8.2438846690890D-02
159  1.5800000000000D+00  7.8726561894134D-02 -7.6943425205078D-02
160  1.5900000000000D+00  6.7668489264027D-02 -7.1513515633647D-02
161  1.6000000000000D+00  5.7714900367874D-02 -6.6168238512105D-02
162  1.6100000000000D+00  4.8810266459775D-02 -6.0926109382132D-02
163  1.6200000000000D+00  4.0896549088355D-02 -5.5805016492482D-02
164  1.6300000000000D+00  3.3913680204048D-02 -5.0822197286333D-02
165  1.6400000000000D+00  2.7800049976857D-02 -4.5994213757049D-02
166  1.6500000000000D+00  2.2492998674221D-02 -4.1336926796040D-02
167  1.6600000000000D+00  1.7929308397259D-02 -3.6865469637140D-02
168  1.6700000000000D+00  1.4045691308731D-02 -3.2594220597208D-02
169  1.6800000000000D+00  1.0779270099361D-02 -2.8536775252767D-02
170  1.6900000000000D+00  8.0680477937762D-03 -2.4705918294151D-02
171  1.7000000000000D+00  5.8513626127944D-03 -2.1113595250469D-02
172  1.7100000000000D+00  4.0703255323786D-03 -1.7770884325684D-02
173  1.7200000000000D+00  2.6682363444887D-03 -1.4687968601694D-02
174  1.7300000000000D+00  1.5909763514932D-03 -1.1874108814700D-02
175  1.7400000000000D+00  7.8737382061218D-04 -9.3376170104455D-03
176  1.7500000000000D+00  2.0954063445788D-04 -7.0858312428297D-03
177  1.7600000000000D+00 -1.8778870149860D-04 -5.1256013149160D-03
178  1.7700000000000D+00 -4.4362205491673D-04 -3.4614908143439D-03
179  1.7800000000000D+00 -5.8632310398215D-04 -2.0955647474972D-03
180  1.7900000000000D+00 -6.5631917188108D-04 -1.0336880236881D-03
181  1.8000000000000D+00 -7.2089370780692D-04 -2.8335229369718D-04
182  1.8100000000000D+00 -7.8694171097096D-04  1.5906795878151D-04
183  1.8200000000000D+00 -7.0732451792941D-04  3.0289433064756D-04
184  1.8300000000000D+00 -3.7780315854653D-04  1.9373119946587D-04
185  1.8400000000000D+00 -3.4048789711573D-05  1.8694464217374D-05
186  1.8500000000000D+00  7.6575854058004D-05 -4.3298155942183D-05
187  1.8600000000000D+00  2.8532231192447D-05 -1.6555392612119D-05
188  1.8700000000000D+00 -1.5132431762171D-05  8.0927901686972D-06
189  1.8800000000000D+00 -1.1472086058631D-05  6.2112320742570D-06
190  1.8900000000000D+00  1.2715863063187D-06 -5.3501459851486D-07
191  1.9000000000000D+00  1.8131530576624D-06 -7.6287653490040D-07
192  1.9100000000000D+00  0.0000000000000D+00  0.0000000000000D+00
193  1.9200000000000D+00  0.0000000000000D+00  0.0000000000000D+00
194  1.9300000000000D+00  0.0000000000000D+00  0.0000000000000D+00
195  1.9400000000000D+00  0.0000000000000D+00  0.0000000000000D+00
196  1.9500000000000D+00  0.0000000000000D+00  0.0000000000000D+00
197  1.9600000000000D+00  0.0000000000000D+00  0.0000000000000D+00
198  1.9700000000000D+00  0.0000000000000D+00  0.0000000000000D+00
199  1.9800000000000D+00  0.0000000000000D+00  0.0000000000000D+00
200  1.9900000000000D+00  0.0000000000000D+00  0.0000000000000D+00
201  2.0000000000000D+00  0.0000000000000D+00  0.0000000000000D+00
202  2.0100000000000D+00  0.0000000000000D+00  0.0000000000000D+00
203  2.0200000000000D+00  0.0000000000000D+00  0.0000000000000D+00
204  2.0300000000000D+00  0.0000000000000D+00  0.0000000000000D+00
205  2.0400000000000D+00  0.0000000000000D+00  0.0000000000000D+00
206  2.0500000000000D+00  0.0000000000000D+00  0.0000000000000D+00
207  2.0600000000000D+00  0.0000000000000D+00  0.0000000000000D+00
208  2.0700000000000D+00  0.0000000000000D+00  0.0000000000000D+00
209  2.0800000000000D+00  0.0000000000000D+00  0.0000000000000D+00
210  2.0900000000000D+00  0.0000000000000D+00  0.0000000000000D+00
211  2.1000000000000D+00  0.0000000000000D+00  0.0000000000000D+00
212  2.1100000000000D+00  0.0000000000000D+00  0.0000000000000D+00
213  2.1200000000000D+00  0.0000000000000D+00  0.0000000000000D+00
214  2.1300000000000D+00  0.0000000000000D+00  0.0000000000000D+00
215  2.1400000000000D+00  0.0000000000000D+00  0.0000000000000D+00
216  2.1500000000000D+00  0.0000000000000D+00  0.0000000000000D+00
217  2.1600000000000D+00  0.0000000000000D+00  0.0000000000000D+00
218  2.1700000000000D+00  0.0000000000000D+00  0.0000000000000D+00
219  2.1800000000000D+00  0.0000000000000D+00  0.0000000000000D+00
220  2.1900000000000D+00  0.0000000000000D+00  0.0000000000000D+00
221  2.2000000000000D+00  0.0000000000000D+00  0.0000000000000D+00
222  2.2100000000000D+00  0.0000000000000D+00  0.0000000000000D+00
223  2.2200000000000D+00  0.0000000000000D+00  0.0000000000000D+00
224  2.2300000000000D+00  0.0000000000000D+00  0.0000000000000D+00
225  2.2400000000000D+00  0.0000000000000D+00  0.0000000000000D+00
226  2.2500000000000D+00  0.0000000000000D+00  0.0000000000000D+00
227  2.2600000000000D+00  0.0000000000000D+00  0.0000000000000D+00
228  2.2700000000000D+00  0.0000000000000D+00  0.0000000000000D+00
229  2.2800000000000D+00  0.0000000000000D+00  0.0000000000000D+00
230  2.2900000000000D+00  0.0000000000000D+00  0.0000000000000D+00
231  2.3000000000000D+00  0.0000000000000D+00  0.0000000000000D+00
232  2.3100000000000D+00  0.0000000000000D+00  0.0000000000000D+00
233  2.3200000000000D+00  0.0000000000000D+00  0.0000000000000D+00
234  2.3300000000000D+00  0.0000000000000D+00  0.0000000000000D+00
235  2.3400000000000D+00  0.0000000000000D+00  0.0000000000000D+00
236  2.3500000000000D+00  0.0000000000000D+00  0.0000000000000D+00
237  2.3600000000000D+00  0.0000000000000D+00  0.0000000000000D+00
238  2.3700000000000D+00  0.0000000000000D+00  0.0000000000000D+00
239  2.3800000000000D+00  0.0000000000000D+00  0.0000000000000D+00
240  2.3900000000000D+00  0.0000000000000D+00  0.0000000000000D+00
241  2.4000000000000D+00  0.0000000000000D+00  0.0000000000000D+00
242  2.4100000000000D+00  0.0000000000000D+00  0.0000000000000D+00
243  2.4200000000000D+00  0.0000000000000D+00  0.0000000000000D+00
244  2.4300000000000D+00  0.0000000000000D+00  0.0000000000000D+00
245  2.4400000000000D+00  0.0000000000000D+00  0.0000000000000D+00
246  2.4500000000000D+00  0.0000000000000D+00  0.0000000000000D+00
247  2.4600000000000D+00  0.0000000000000D+00  0.0000000000000D+00
248  2.4700000000000D+00  0.0000000000000D+00  0.0000000000000D+00
249  2.4800000000000D+00  0.0000000000000D+00  0.0000000000000D+00
250  2.4900000000000D+00  0.0000000000000D+00  0.0000000000000D+00
251  2.5000000000000D+00  0.0000000000000D+00  0.0000000000000D+00
252  2.5100000000000D+00  0.0000000000000D+00  0.0000000000000D+00
253  2.5200000000000D+00  0.0000000000000D+00  0.0000000000000D+00
254  2.5300000000000D+00  0.0000000000000D+00  0.0000000000000D+00
255  2.5400000000000D+00  0.0000000000000D+00  0.0000000000000D+00
256  2.5500000000000D+00  0.0000000000000D+00  0.0000000000000D+00
257  2.5600000000000D+00  0.0000000000000D+00  0.0000000000000D+00
258  2.5700000000000D+00  0.0000000000000D+00  0.0000000000000D+00
259  2.5800000000000D+00  0.0000000000000D+00  0.0000000000000D+00
260  2.5900000000000D+00  0.0000000000000D+00  0.0000000000000D+00
261  2.6000000000000D+00  0.0000000000000D+00  0.0000000000000D+00
262  2.6100000000000D+00  0.0000000000000D+00  0.0000000000000D+00
263  2.6200000000000D+00  0.0000000000000D+00  0.0000000000000D+00
264  2.6300000000000D+00  0.0000000000000D+00  0.0000000000000D+00
265  2.6400000000000D+00  0.0000000000000D+00  0.0000000000000D+00
266  2.6500000000000D+00  0.0000000000000D+00  0.0000000000000D+00
267  2.6600000000000D+00  0.0000000000000D+00  0.0000000000000D+00
268  2.6700000000000D+00  0.0000000000000D+00  0.0000000000000D+00
269  2.6800000000000D+00  0.0000000000000D+00  0.0000000000000D+00
270  2.6900000000000D+00  0.0000000000000D+00  0.0000000000000D+00
271  2.7000000000000D+00  0.0000000000000D+00  0.0000000000000D+00
272  2.7100000000000D+00  0.0000000000000D+00  0.0000000000000D+00
273  2.7200000000000D+00  0.0000000000000D+00  0.0000000000000D+00
274  2.7300000000000D+00  0.0000000000000D+00  0.0000000000000D+00
275  2.7400000000000D+00  0.0000000000000D+00  0.0000000000000D+00
276  2.7500000000000D+00  0.0000000000000D+00  0.0000000000000D+00
277  2.7600000000000D+00  0.0000000000000D+00  0.0000000000000D+00
278  2.7700000000000D+00  0.0000000000000D+00  0.0000000000000D+00
279  2.7800000000000D+00  0.0000000000000D+00  0.0000000000000D+00
280  2.7900000000000D+00  0.0000000000000D+00  0.0000000000000D+00
281  2.8000000000000D+00  0.0000000000000D+00  0.0000000000000D+00
282  2.8100000000000D+00  0.0000000000000D+00  0.0000000000000D+00
283  2.8200000000000D+00  0.0000000000000D+00  0.0000000000000D+00
284  2.8300000000000D+00  0.0000000000000D+00  0.0000000000000D+00
285  2.8400000000000D+00  0.0000000000000D+00  0.0000000000000D+00
286  2.8500000000000D+00  0.0000000000000D+00  0.0000000000000D+00
287  2.8600000000000D+00  0.0000000000000D+00  0.0000000000000D+00
288  2.8700000000000D+00  0.0000000000000D+00  0.0000000000000D+00
289  2.8800000000000D+00  0.0000000000000D+00  0.0000000000000D+00
290  2.8900000000000D+00  0.0000000000000D+00  0.0000000000000D+00
291  2.9000000000000D+00  0.0000000000000D+00  0.0000000000000D+00
292  2.9100000000000D+00  0.0000000000000D+00  0.0000000000000D+00
293  2.9200000000000D+00  0.0000000000000D+00  0.0000000000000D+00
294  2.9300000000000D+00  0.0000000000000D+00  0.0000000000000D+00
295  2.9400000000000D+00  0.0000000000000D+00  0.0000000000000D+00
296  2.9500000000000D+00  0.0000000000000D+00  0.0000000000000D+00
297  2.9600000000000D+00  0.0000000000000D+00  0.0000000000000D+00
298  2.9700000000000D+00  0.0000000000000D+00  0.0000000000000D+00
299  2.9800000000000D+00  0.0000000000000D+00  0.0000000000000D+00
300  2.9900000000000D+00  0.0000000000000D+00  0.0000000000000D+00
301  3.0000000000000D+00  0.0000000000000D+00  0.0000000000000D+00
302  3.0100000000000D+00  0.0000000000000D+00  0.0000000000000D+00
303  3.0200000000000D+00  0.0000000000000D+00  0.0000000000000D+00
304  3.0300000000000D+00  0.0000000000000D+00  0.0000000000000D+00
305  3.0400000000000D+00  0.0000000000000D+00  0.0000000000000D+00
306  3.0500000000000D+00  0.0000000000000D+00  0.0000000000000D+00
307  3.0600000000000D+00  0.0000000000000D+00  0.0000000000000D+00
308  3.0700000000000D+00  0.0000000000000D+00  0.0000000000000D+00
309  3.0800000000000D+00  0.0000000000000D+00  0.0000000000000D+00
310  3.0900000000000D+00  0.0000000000000D+00  0.0000000000000D+00
311  3.1000000000000D+00  0.0000000000000D+00  0.0000000000000D+00
312  3.1100000000000D+00  0.0000000000000D+00  0.0000000000000D+00
313  3.1200000000000D+00  0.0000000000000D+00  0.0000000000000D+00
314  3.1300000000000D+00  0.0000000000000D+00  0.0000000000000D+00
315  3.1400000000000D+00  0.0000000000000D+00  0.0000000000000D+00
316  3.1500000000000D+00  0.0000000000000D+00  0.0000000000000D+00
317  3.1600000000000D+00  0.0000000000000D+00  0.0000000000000D+00
318  3.1700000000000D+00  0.0000000000000D+00  0.0000000000000D+00
319  3.1800000000000D+00  0.0000000000000D+00  0.0000000000000D+00
320  3.1900000000000D+00  0.0000000000000D+00  0.0000000000000D+00
321  3.2000000000000D+00  0.0000000000000D+00  0.0000000000000D+00
322  3.2100000000000D+00  0.0000000000000D+00  0.0000000000000D+00
323  3.2200000000000D+00  0.0000000000000D+00  0.0000000000000D+00
324  3.2300000000000D+00  0.0000000000000D+00  0.0000000000000D+00
325  3.2400000000000D+00  0.0000000000000D+00  0.0000000000000D+00
326  3.2500000000000D+00  0.0000000000000D+00  0.0000000000000D+00
327  3.2600000000000D+00  0.0000000000000D+00  0.0000000000000D+00
328  3.2700000000000D+00  0.0000000000000D+00  0.0000000000000D+00
329  3.2800000000000D+00  0.0000000000000D+00  0.0000000000000D+00
330  3.2900000000000D+00  0.0000000000000D+00  0.0000000000000D+00
331  3.3000000000000D+00  0.0000000000000D+00  0.0000000000000D+00
332  3.3100000000000D+00  0.0000000000000D+00  0.0000000000000D+00
333  3.3200000000000D+00  0.0000000000000D+00  0.0000000000000D+00
334  3.3300000000000D+00  0.0000000000000D+00  0.0000000000000D+00
335  3.3400000000000D+00  0.0000000000000D+00  0.0000000000000D+00
336  3.3500000000000D+00  0.0000000000000D+00  0.0000000000000D+00
337  3.3600000000000D+00  0.0000000000000D+00  0.0000000000000D+00
338  3.3700000000000D+00  0.0000000000000D+00  0.0000000000000D+00
339  3.3800000000000D+00  0.0000000000000D+00  0.0000000000000D+00
340  3.3900000000000D+00  0.0000000000000D+00  0.0000000000000D+00
341  3.4000000000000D+00  0.0000000000000D+00  0.0000000000000D+00
342  3.4100000000000D+00  0.0000000000000D+00  0.0000000000000D+00
343  3.4200000000000D+00  0.0000000000000D+00  0.0000000000000D+00
344  3.4300000000000D+00  0.0000000000000D+00  0.0000000000000D+00
345  3.4400000000000D+00  0.0000000000000D+00  0.0000000000000D+00
346  3.4500000000000D+00  0.0000000000000D+00  0.0000000000000D+00
347  3.4600000000000D+00  0.0000000000000D+00  0.0000000000000D+00
348  3.4700000000000D+00  0.0000000000000D+00  0.0000000000000D+00
349  3.4800000000000D+00  0.0000000000000D+00  0.0000000000000D+00
350  3.4900000000000D+00  0.0000000000000D+00  0.0000000000000D+00
351  3.5000000000000D+00  0.0000000000000D+00  0.0000000000000D+00
352  3.5100000000000D+00  0.0000000000000D+00  0.0000000000000D+00
353  3.5200000000000D+00  0.0000000000000D+00  0.0000000000000D+00
354  3.5300000000000D+00  0.0000000000000D+00  0.0000000000000D+00
355  3.5400000000000D+00  0.0000000000000D+00  0.0000000000000D+00
356  3.5500000000000D+00  0.0000000000000D+00  0.0000000000000D+00
357  3.5600000000000D+00  0.0000000000000D+00  0.0000000000000D+00
358  3.5700000000000D+00  0.0000000000000D+00  0.0000000000000D+00
359  3.5800000000000D+00  0.0000000000000D+00  0.0000000000000D+00
360  3.5900000000000D+00  0.0000000000000D+00  0.0000000000000D+00
361  3.6000000000000D+00  0.0000000000000D+00  0.0000000000000D+00
362  3.6100000000000D+00  0.0000000000000D+00  0.0000000000000D+00
363  3.6200000000000D+00  0.0000000000000D+00  0.0000000000000D+00
364  3.6300000000000D+00  0.0000000000000D+00  0.0000000000000D+00
365  3.6400000000000D+00  0.0000000000000D+00  0.0000000000000D+00
366  3.6500000000000D+00  0.0000000000000D+00  0.0000000000000D+00
367  3.6600000000000D+00  0.0000000000000D+00  0.0000000000000D+00
368  3.6700000000000D+00  0.0000000000000D+00  0.0000000000000D+00
369  3.6800000000000D+00  0.0000000000000D+00  0.0000000000000D+00
370  3.6900000000000D+00  0.0000000000000D+00  0.0000000000000D+00
371  3.7000000000000D+00  0.0000000000000D+00  0.0000000000000D+00
372  3.7100000000000D+00  0.0000000000000D+00  0.0000000000000D+00
373  3.7200000000000D+00  0.0000000000000D+00  0.0000000000000D+00
374  3.7300000000000D+00  0.0000000000000D+00  0.0000000000000D+00
375  3.7400000000000D+00  0.0000000000000D+00  0.0000000000000D+00
376  3.7500000000000D+00  0.0000000000000D+00  0.0000000000000D+00
377  3.7600000000000D+00  0.0000000000000D+00  0.0000000000000D+00
378  3.7700000000000D+00  0.0000000000000D+00  0.0000000000000D+00
379  3.7800000000000D+00  0.0000000000000D+00  0.0000000000000D+00
380  3.7900000000000D+00  0.0000000000000D+00  0.0000000000000D+00
381  3.8000000000000D+00  0.0000000000000D+00  0.0000000000000D+00
382  3.8100000000000D+00  0.0000000000000D+00  0.0000000000000D+00
383  3.8200000000000D+00  0.0000000000000D+00  0.0000000000000D+00
384  3.8300000000000D+00  0.0000000000000D+00  0.0000000000000D+00
385  3.8400000000000D+00  0.0000000000000D+00  0.0000000000000D+00
386  3.8500000000000D+00  0.0000000000000D+00  0.0000000000000D+00
387  3.8600000000000D+00  0.0000000000000D+00  0.0000000000000D+00
388  3.8700000000000D+00  0.0000000000000D+00  0.0000000000000D+00
389  3.8800000000000D+00  0.0000000000000D+00  0.0000000000000D+00
390  3.8900000000000D+00  0.0000000000000D+00  0.0000000000000D+00
391  3.9000000000000D+00  0.0000000000000D+00  0.0000000000000D+00
392  3.9100000000000D+00  0.0000000000000D+00  0.0000000000000D+00
393  3.9200000000000D+00  0.0000000000000D+00  0.0000000000000D+00
394  3.9300000000000D+00  0.0000000000000D+00  0.0000000000000D+00
395  3.9400000000000D+00  0.0000000000000D+00  0.0000000000000D+00
396  3.9500000000000D+00  0.0000000000000D+00  0.0000000000000D+00
397  3.9600000000000D+00  0.0000000000000D+00  0.0000000000000D+00
398  3.9700000000000D+00  0.0000000000000D+00  0.0000000000000D+00
399  3.9800000000000D+00  0.0000000000000D+00  0.0000000000000D+00
400  3.9900000000000D+00  0.0000000000000D+00  0.0000000000000D+00
401  4.0000000000000D+00  0.0000000000000D+00  0.0000000000000D+00
402  4.0100000000000D+00  0.0000000000000D+00  0.0000000000000D+00
403  4.0200000000000D+00  0.0000000000000D+00  0.0000000000000D+00
404  4.0300000000000D+00  0.0000000000000D+00  0.0000000000000D+00
405  4.0400000000000D+00  0.0000000000000D+00  0.0000000000000D+00
406  4.0500000000000D+00  0.0000000000000D+00  0.0000000000000D+00
407  4.0600000000000D+00  0.0000000000000D+00  0.0000000000000D+00
408  4.0700000000000D+00  0.0000000000000D+00  0.0000000000000D+00
409  4.0800000000000D+00  0.0000000000000D+00  0.0000000000000D+00
410  4.0900000000000D+00  0.0000000000000D+00  0.0000000000000D+00
411  4.1000000000000D+00  0.0000000000000D+00  0.0000000000000D+00
412  4.1100000000000D+00  0.0000000000000D+00  0.0000000000000D+00
413  4.1200000000000D+00  0.0000000000000D+00  0.0000000000000D+00
414  4.1300000000000D+00  0.0000000000000D+00  0.0000000000000D+00
415  4.1400000000000D+00  0.0000000000000D+00  0.0000000000000D+00
416  4.1500000000000D+00  0.0000000000000D+00  0.0000000000000D+00
417  4.1600000000000D+00  0.0000000000000D+00  0.0000000000000D+00
418  4.1700000000000D+00  0.0000000000000D+00  0.0000000000000D+00
419  4.1800000000000D+00  0.0000000000000D+00  0.0000000000000D+00
420  4.1900000000000D+00  0.0000000000000D+00  0.0000000000000D+00
421  4.2000000000000D+00  0.0000000000000D+00  0.0000000000000D+00
422  4.2100000000000D+00  0.0000000000000D+00  0.0000000000000D+00
423  4.2200000000000D+00  0.0000000000000D+00  0.0000000000000D+00
424  4.2300000000000D+00  0.0000000000000D+00  0.0000000000000D+00
425  4.2400000000000D+00  0.0000000000000D+00  0.0000000000000D+00
426  4.2500000000000D+00  0.0000000000000D+00  0.0000000000000D+00
427  4.2600000000000D+00  0.0000000000000D+00  0.0000000000000D+00
428  4.2700000000000D+00  0.0000000000000D+00  0.0000000000000D+00
429  4.2800000000000D+00  0.0000000000000D+00  0.0000000000000D+00
430  4.2900000000000D+00  0.0000000000000D+00  0.0000000000000D+00
431  4.3000000000000D+00  0.0000000000000D+00  0.0000000000000D+00
432  4.3100000000000D+00  0.0000000000000D+00  0.0000000000000D+00
433  4.3200000000000D+00  0.0000000000000D+00  0.0000000000000D+00
434  4.3300000000000D+00  0.0000000000000D+00  0.0000000000000D+00
435  4.3400000000000D+00  0.0000000000000D+00  0.0000000000000D+00
436  4.3500000000000D+00  0.0000000000000D+00  0.0000000000000D+00
437  4.3600000000000D+00  0.0000000000000D+00  0.0000000000000D+00
438  4.3700000000000D+00  0.0000000000000D+00  0.0000000000000D+00
439  4.3800000000000D+00  0.0000000000000D+00  0.0000000000000D+00
440  4.3900000000000D+00  0.0000000000000D+00  0.0000000000000D+00
441  4.4000000000000D+00  0.0000000000000D+00  0.0000000000000D+00
442  4.4100000000000D+00  0.0000000000000D+00  0.0000000000000D+00
443  4.4200000000000D+00  0.0000000000000D+00  0.0000000000000D+00