Si    ONCVPSP-3.3.0  r_core=   1.60303   1.72197   1.91712
14.0000      4.0000      180430    zatom,zion,pspd
8 -116133   2     4   600     0    pspcod,pspxc,lmax,lloc,mmax,r2well
5.99000000  4.00000000  0.00000000    rchrg fchrg qchrg
2     3     2     0    nproj
3     1           extension_switch
4     3     0    nprojso
0                         8.4411656113549D-01  5.3848355490607D+00
1  0.0000000000000D+00  1.2396369819534D-08 -5.3653347320548D-09
2  1.0000000000000D-02 -1.0278732550396D-02  3.1810527289033D-02
3  2.0000000000000D-02 -2.0001461798317D-02  6.3372418739717D-02
4  3.0000000000000D-02 -2.8622979681282D-02  9.4441698291457D-02
5  4.0000000000000D-02 -3.5619478750235D-02  1.2478362727520D-01
6  5.0000000000000D-02 -4.0498781042714D-02  1.5417711909849D-01
7  6.0000000000000D-02 -4.2810010233843D-02  1.8241891301207D-01
8  7.0000000000000D-02 -4.2152536326508D-02  2.0932743307276D-01
9  8.0000000000000D-02 -3.8184034538462D-02  2.3474626378266D-01
10  9.0000000000000D-02 -3.0627515145884D-02  2.5854718042109D-01
11  1.0000000000000D-01 -1.9277198597628D-02  2.8063267968388D-01
12  1.1000000000000D-01 -4.0031299278409D-03  3.0093796477714D-01
13  1.2000000000000D-01  1.5245551963359D-02  3.1943234843743D-01
14  1.3000000000000D-01  3.8438751582165D-02  3.3612004730975D-01
15  1.4000000000000D-01  6.5464997996496D-02  3.5104035154338D-01
16  1.5000000000000D-01  9.6132482437551D-02  3.6426716418709D-01
17  1.6000000000000D-01  1.3017153988264D-01  3.7590791580046D-01
18  1.7000000000000D-01  1.6723853728772D-01  3.8610187046364D-01
19  1.8000000000000D-01  2.0692110685162D-01  3.9501784988362D-01
20  1.9000000000000D-01  2.4874463939783D-01  4.0285141238232D-01
21  2.0000000000000D-01  2.9217993104831D-01  4.0982153304069D-01
22  2.1000000000000D-01  3.3665185620951D-01  4.1616684000226D-01
23  2.2000000000000D-01  3.8154892183571D-01  4.2214146976023D-01
24  2.3000000000000D-01  4.2623354228938D-01  4.2801061103171D-01
25  2.4000000000000D-01  4.7005286115058D-01  4.3404581244236D-01
26  2.5000000000000D-01  5.1234993626308D-01  4.4052013360948D-01
27  2.6000000000000D-01  5.5247509732154D-01  4.4770322224242D-01
28  2.7000000000000D-01  5.8979728152711D-01  4.5585640152258D-01
29  2.8000000000000D-01  6.2371515234218D-01  4.6522785224931D-01
30  2.9000000000000D-01  6.5366780917648D-01  4.7604797303374D-01
31  3.0000000000000D-01  6.7914490190030D-01  4.8852499920669D-01
32  3.1000000000000D-01  6.9969597331493D-01  5.0284095711782D-01
33  3.2000000000000D-01  7.1493886497188D-01  5.1914802520277D-01
34  3.3000000000000D-01  7.2456703682494D-01  5.3756536666925D-01
35  3.4000000000000D-01  7.2835566888157D-01  5.5817649100389D-01
36  3.5000000000000D-01  7.2616643300290D-01  5.8102719285652D-01
37  3.6000000000000D-01  7.1795084496265D-01  6.0612410735463D-01
38  3.7000000000000D-01  7.0375213044882D-01  6.3343391069739D-01
39  3.8000000000000D-01  6.8370556349656D-01  6.6288318414053D-01
40  3.9000000000000D-01  6.5803726145879D-01  6.9435894839037D-01
41  4.0000000000000D-01  6.2706144663338D-01  7.2770986415982D-01
42  4.1000000000000D-01  5.9117621063503D-01  7.6274808338920D-01
43  4.2000000000000D-01  5.5085784309363D-01  7.9925172458860D-01
44  4.3000000000000D-01  5.0665381084873D-01  8.3696793510125D-01
45  4.4000000000000D-01  4.5917449707946D-01  8.7561649299818D-01
46  4.5000000000000D-01  4.0908383136237D-01  9.1489389196547D-01
47  4.6000000000000D-01  3.5708896112168D-01  9.5447784409490D-01
48  4.7000000000000D-01  3.0392913198894D-01  9.9403212808243D-01
49  4.8000000000000D-01  2.5036395892849D-01  1.0332117041055D+00
50  4.9000000000000D-01  1.9716128135566D-01  1.0716680116988D+00
51  5.0000000000000D-01  1.4508480367415D-01  1.1090543633678D+00
52  5.1000000000000D-01  9.4881727532721D-02  1.1450313445382D+00
53  5.2000000000000D-01  4.7270583551985D-02  1.1792721297752D+00
54  5.3000000000000D-01  2.9294682504326D-03  1.2114676260507D+00
55  5.4000000000000D-01 -3.7515113560868D-02  1.2413313561610D+00
56  5.5000000000000D-01 -7.3498609507541D-02  1.2686039992002D+00
57  5.6000000000000D-01 -1.0452780418976D-01  1.2930575101963D+00
58  5.7000000000000D-01 -1.3018906338463D-01  1.3144987475456D+00
59  5.8000000000000D-01 -1.5015529178957D-01  1.3327725446553D+00
60  5.9000000000000D-01 -1.6419147871556D-01  1.3477641710570D+00
61  6.0000000000000D-01 -1.7215872895908D-01  1.3594011381087D+00
62  6.1000000000000D-01 -1.7401670070711D-01  1.3676543150354D+00
63  6.2000000000000D-01 -1.6982439843277D-01  1.3725383323375D+00
64  6.3000000000000D-01 -1.5973929596865D-01  1.3741112613680D+00
65  6.4000000000000D-01 -1.4401479256015D-01  1.3724735708187D+00
66  6.5000000000000D-01 -1.2299603274932D-01  1.3677663729903D+00
67  6.6000000000000D-01 -9.7114148447501D-02  1.3601689846279D+00
68  6.7000000000000D-01 -6.6879008304510D-02  1.3498958386815D+00
69  6.8000000000000D-01 -3.2870585183775D-02  1.3371927944905D+00
70  6.9000000000000D-01  4.2709236038339D-03  1.3223329042217D+00
71  7.0000000000000D-01  4.3856066779142D-02  1.3056117028833D+00
72  7.1000000000000D-01  8.5158024317409D-02  1.2873420976775D+00
73  7.2000000000000D-01  1.2742521476338D-01  1.2678489397063D+00
74  7.3000000000000D-01  1.6989441842331D-01  1.2474633669555D+00
75  7.4000000000000D-01  2.1180419991255D-01  1.2265170119826D+00
76  7.5000000000000D-01  2.5240840675996D-01  1.2053361707193D+00
77  7.6000000000000D-01  2.9098951760847D-01  1.1842360302145D+00
78  7.7000000000000D-01  3.2687161412472D-01  1.1635150529542D+00
79  7.8000000000000D-01  3.5943275502753D-01  1.1434496135934D+00
80  7.9000000000000D-01  3.8811653862614D-01  1.1242889805396D+00
81  8.0000000000000D-01  4.1244265182842D-01  1.1062507298843D+00
82  8.1000000000000D-01  4.3201621856616D-01  1.0895166727573D+00
83  8.2000000000000D-01  4.4653577877130D-01  1.0742293693672D+00
84  8.3000000000000D-01  4.5579975014897D-01  1.0604892939235D+00
85  8.4000000000000D-01  4.5971124870654D-01  1.0483527044275D+00
86  8.5000000000000D-01  4.5828116994556D-01  1.0378302601548D+00
87  8.6000000000000D-01  4.5162946039676D-01  1.0288864176845D+00
88  8.7000000000000D-01  4.3998453834035D-01  1.0214396237642D+00
89  8.8000000000000D-01  4.2368085263779D-01  1.0153633103250D+00
90  8.9000000000000D-01  4.0315459912584D-01  1.0104876837974D+00
91  9.0000000000000D-01  3.7893764449460D-01  1.0066022877219D+00
92  9.1000000000000D-01  3.5164973749403D-01  1.0034593047351D+00
93  9.2000000000000D-01  3.2198911619697D-01  1.0007775515282D+00
94  9.3000000000000D-01  2.9072164741530D-01  9.9824710855138D-01
95  9.4000000000000D-01  2.5866865976411D-01  9.9553451524918D-01
96  9.5000000000000D-01  2.2669365486989D-01  9.9228845165898D-01
97  9.6000000000000D-01  1.9568810143361D-01  9.8814581844800D-01
98  9.7000000000000D-01  1.6655653393371D-01  9.8273812005644D-01
99  9.8000000000000D-01  1.4020119144651D-01  9.7569804966416D-01
100  9.9000000000000D-01  1.1750644183615D-01  9.6666617043561D-01
101  1.0000000000000D+00  9.9323242968575D-02  9.5529758468492D-01
102  1.0100000000000D+00  8.6453894442616D-02  9.4126848175959D-01
103  1.0200000000000D+00  7.9637331458833D-02  9.2428245619675D-01
104  1.0300000000000D+00  7.9535206468243D-02  9.0407649023188D-01
105  1.0400000000000D+00  8.6718993939876D-02  8.8042649913119D-01
106  1.0500000000000D+00  1.0165833992510D-01  8.5315234366063D-01
107  1.0600000000000D+00  1.2471086097544D-01  8.2212222133953D-01
108  1.0700000000000D+00  1.5611357490322D-01  7.8725635759499D-01
109  1.0800000000000D+00  1.9597612287295D-01  7.4852992781105D-01
110  1.0900000000000D+00  2.4427591414090D-01  7.0597515337256D-01
111  1.1000000000000D+00  3.0085529711581D-01  6.5968252669064D-01
112  1.1100000000000D+00  3.6542082923501D-01  6.0980113360806D-01
113  1.1200000000000D+00  4.3754468377836D-01  5.5653805637614D-01
114  1.1300000000000D+00  5.1666820006774D-01  5.0015685403189D-01
115  1.1400000000000D+00  6.0210754815367D-01  4.4097513222763D-01
116  1.1500000000000D+00  6.9306145029145D-01  3.7936122697066D-01
117  1.1600000000000D+00  7.8862086070811D-01  3.1573004431483D-01
118  1.1700000000000D+00  8.8778047836751D-01  2.5053810959960D-01
119  1.1800000000000D+00  9.8945193777922D-01  1.8427789262353D-01
120  1.1900000000000D+00  1.0924784947925D+00  1.1747148726297D-01
121  1.2000000000000D+00  1.1956509955231D+00  5.0663736477189D-02
122  1.2100000000000D+00  1.2977248971999D+00 -1.5585097989231D-02
123  1.2200000000000D+00  1.3974380958779D+00 -8.0707015921279D-02
124  1.2300000000000D+00  1.4935292903837D+00 -1.4413419260951D-01
125  1.2400000000000D+00  1.5847566096978D+00 -2.0530700917113D-01
126  1.2500000000000D+00  1.6699162228603D+00 -2.6368207838108D-01
127  1.2600000000000D+00  1.7478606432573D+00 -3.1874014201423D-01
128  1.2700000000000D+00  1.8175164486824D+00 -3.6999371976591D-01
129  1.2800000000000D+00  1.8779011402989D+00 -4.1699439054587D-01
130  1.2900000000000D+00  1.9281388705044D+00 -4.5933958985494D-01
131  1.3000000000000D+00  1.9674748000376D+00 -4.9667881996971D-01
132  1.3100000000000D+00  1.9952878443845D+00 -5.2871916953752D-01
133  1.3200000000000D+00  2.0111015978638D+00 -5.5523005132562D-01
134  1.3300000000000D+00  2.0145932732785D+00 -5.7604708815150D-01
135  1.3400000000000D+00  2.0056004755665D+00 -5.9107506865315D-01
136  1.3500000000000D+00  1.9841257019642D+00 -6.0028992639424D-01
137  1.3600000000000D+00  1.9503384993813D+00 -6.0373971223587D-01
138  1.3700000000000D+00  1.9045751758772D+00 -6.0154451535111D-01
139  1.3800000000000D+00  1.8473361047479D+00 -5.9389534918177D-01
140  1.3900000000000D+00  1.7792806111391D+00 -5.8105199774055D-01
141  1.4000000000000D+00  1.7012194853854D+00 -5.6333984100505D-01
142  1.4100000000000D+00  1.6141052669693D+00 -5.4114572107522D-01
143  1.4200000000000D+00  1.5190203529990D+00 -5.1491287201686D-01
144  1.4300000000000D+00  1.4171631559573D+00 -4.8513500987205D-01
145  1.4400000000000D+00  1.3098324679739D+00 -4.5234965026594D-01
146  1.4500000000000D+00  1.1984102420061D+00 -4.1713074390056D-01
147  1.4600000000000D+00  1.0843430741435D+00 -3.8008075206165D-01
148  1.4700000000000D+00  9.6912258996357D-01 -3.4182224921176D-01
149  1.4800000000000D+00  8.5426507585889D-01 -3.0298919924122D-01
150  1.4900000000000D+00  7.4129060239981D-01 -2.6421801148520D-01
151  1.5000000000000D+00  6.3170197365956D-01 -2.2613852006284D-01
152  1.5100000000000D+00  5.2696378090305D-01 -1.8936500621121D-01
153  1.5200000000000D+00  4.2848190172529D-01 -1.5448741022860D-01
154  1.5300000000000D+00  3.3758368759921D-01 -1.2206283753069D-01
155  1.5400000000000D+00  2.5549921159913D-01 -9.2607518622777D-02
156  1.5500000000000D+00  1.8336976238215D-01 -6.6598777369543D-02
157  1.5600000000000D+00  1.2214600158322D-01 -4.4436892736374D-02
158  1.5700000000000D+00  7.2402800200440D-02 -2.6376533106968D-02
159  1.5800000000000D+00  3.5318654258859D-02 -1.2883591541425D-02
160  1.5900000000000D+00  1.2243975842788D-02 -4.4774018969818D-03
161  1.6000000000000D+00  1.4755370136271D-03 -5.5038414274994D-04
162  1.6100000000000D+00 -1.2049258750583D-03  4.3236783250512D-04
163  1.6200000000000D+00 -3.0351724392655D-04  1.0968475718534D-04
164  1.6300000000000D+00  3.7252994277266D-04 -1.3476846310633D-04
165  1.6400000000000D+00  9.0945804370544D-05 -3.2934566326037D-05
166  1.6500000000000D+00 -6.7149491077738D-05  2.4211435377047D-05
167  1.6600000000000D+00 -1.4551929099164D-05  5.2501698172016D-06
168  1.6700000000000D+00 -7.7282043186040D-08  5.9979202147141D-08
169  1.6800000000000D+00 -1.5759311217871D-08  1.2230925506990D-08
170  1.6900000000000D+00  0.0000000000000D+00  0.0000000000000D+00
171  1.7000000000000D+00  0.0000000000000D+00  0.0000000000000D+00
172  1.7100000000000D+00  0.0000000000000D+00  0.0000000000000D+00
173  1.7200000000000D+00  0.0000000000000D+00  0.0000000000000D+00
174  1.7300000000000D+00  0.0000000000000D+00  0.0000000000000D+00
175  1.7400000000000D+00  0.0000000000000D+00  0.0000000000000D+00
176  1.7500000000000D+00  0.0000000000000D+00  0.0000000000000D+00
177  1.7600000000000D+00  0.0000000000000D+00  0.0000000000000D+00
178  1.7700000000000D+00  0.0000000000000D+00  0.0000000000000D+00
179  1.7800000000000D+00  0.0000000000000D+00  0.0000000000000D+00
180  1.7900000000000D+00  0.0000000000000D+00  0.0000000000000D+00
181  1.8000000000000D+00  0.0000000000000D+00  0.0000000000000D+00
182  1.8100000000000D+00  0.0000000000000D+00  0.0000000000000D+00
183  1.8200000000000D+00  0.0000000000000D+00  0.0000000000000D+00
184  1.8300000000000D+00  0.0000000000000D+00  0.0000000000000D+00
185  1.8400000000000D+00  0.0000000000000D+00  0.0000000000000D+00
186  1.8500000000000D+00  0.0000000000000D+00  0.0000000000000D+00
187  1.8600000000000D+00  0.0000000000000D+00  0.0000000000000D+00
188  1.8700000000000D+00  0.0000000000000D+00  0.0000000000000D+00
189  1.8800000000000D+00  0.0000000000000D+00  0.0000000000000D+00
190  1.8900000000000D+00  0.0000000000000D+00  0.0000000000000D+00
191  1.9000000000000D+00  0.0000000000000D+00  0.0000000000000D+00
192  1.9100000000000D+00  0.0000000000000D+00  0.0000000000000D+00
193  1.9200000000000D+00  0.0000000000000D+00  0.0000000000000D+00
194  1.9300000000000D+00  0.0000000000000D+00  0.0000000000000D+00
195  1.9400000000000D+00  0.0000000000000D+00  0.0000000000000D+00
196  1.9500000000000D+00  0.0000000000000D+00  0.0000000000000D+00
197  1.9600000000000D+00  0.0000000000000D+00  0.0000000000000D+00
198  1.9700000000000D+00  0.0000000000000D+00  0.0000000000000D+00
199  1.9800000000000D+00  0.0000000000000D+00  0.0000000000000D+00
200  1.9900000000000D+00  0.0000000000000D+00  0.0000000000000D+00
201  2.0000000000000D+00  0.0000000000000D+00  0.0000000000000D+00
202  2.0100000000000D+00  0.0000000000000D+00  0.0000000000000D+00
203  2.0200000000000D+00  0.0000000000000D+00  0.0000000000000D+00
204  2.0300000000000D+00  0.0000000000000D+00  0.0000000000000D+00
205  2.0400000000000D+00  0.0000000000000D+00  0.0000000000000D+00
206  2.0500000000000D+00  0.0000000000000D+00  0.0000000000000D+00
207  2.0600000000000D+00  0.0000000000000D+00  0.0000000000000D+00
208  2.0700000000000D+00  0.0000000000000D+00  0.0000000000000D+00
209  2.0800000000000D+00  0.0000000000000D+00  0.0000000000000D+00
210  2.0900000000000D+00  0.0000000000000D+00  0.0000000000000D+00
211  2.1000000000000D+00  0.0000000000000D+00  0.0000000000000D+00
212  2.1100000000000D+00  0.0000000000000D+00  0.0000000000000D+00
213  2.1200000000000D+00  0.0000000000000D+00  0.0000000000000D+00
214  2.1300000000000D+00  0.0000000000000D+00  0.0000000000000D+00
215  2.1400000000000D+00  0.0000000000000D+00  0.0000000000000D+00
216  2.1500000000000D+00  0.0000000000000D+00  0.0000000000000D+00
217  2.1600000000000D+00  0.0000000000000D+00  0.0000000000000D+00
218  2.1700000000000D+00  0.0000000000000D+00  0.0000000000000D+00
219  2.1800000000000D+00  0.0000000000000D+00  0.0000000000000D+00
220  2.1900000000000D+00  0.0000000000000D+00  0.0000000000000D+00
221  2.2000000000000D+00  0.0000000000000D+00  0.0000000000000D+00
222  2.2100000000000D+00  0.0000000000000D+00  0.0000000000000D+00
223  2.2200000000000D+00  0.0000000000000D+00  0.0000000000000D+00
224  2.2300000000000D+00  0.0000000000000D+00  0.0000000000000D+00
225  2.2400000000000D+00  0.0000000000000D+00  0.0000000000000D+00
226  2.2500000000000D+00  0.0000000000000D+00  0.0000000000000D+00
227  2.2600000000000D+00  0.0000000000000D+00  0.0000000000000D+00
228  2.2700000000000D+00  0.0000000000000D+00  0.0000000000000D+00
229  2.2800000000000D+00  0.0000000000000D+00  0.0000000000000D+00
230  2.2900000000000D+00  0.0000000000000D+00  0.0000000000000D+00
231  2.3000000000000D+00  0.0000000000000D+00  0.0000000000000D+00
232  2.3100000000000D+00  0.0000000000000D+00  0.0000000000000D+00
233  2.3200000000000D+00  0.0000000000000D+00  0.0000000000000D+00
234  2.3300000000000D+00  0.0000000000000D+00  0.0000000000000D+00
235  2.3400000000000D+00  0.0000000000000D+00  0.0000000000000D+00
236  2.3500000000000D+00  0.0000000000000D+00  0.0000000000000D+00
237  2.3600000000000D+00  0.0000000000000D+00  0.0000000000000D+00
238  2.3700000000000D+00  0.0000000000000D+00  0.0000000000000D+00
239  2.3800000000000D+00  0.0000000000000D+00  0.0000000000000D+00
240  2.3900000000000D+00  0.0000000000000D+00  0.0000000000000D+00
241  2.4000000000000D+00  0.0000000000000D+00  0.0000000000000D+00
242  2.4100000000000D+00  0.0000000000000D+00  0.0000000000000D+00
243  2.4200000000000D+00  0.0000000000000D+00  0.0000000000000D+00
244  2.4300000000000D+00  0.0000000000000D+00  0.0000000000000D+00
245  2.4400000000000D+00  0.0000000000000D+00  0.0000000000000D+00
246  2.4500000000000D+00  0.0000000000000D+00  0.0000000000000D+00
247  2.4600000000000D+00  0.0000000000000D+00  0.0000000000000D+00
248  2.4700000000000D+00  0.0000000000000D+00  0.0000000000000D+00
249  2.4800000000000D+00  0.0000000000000D+00  0.0000000000000D+00
250  2.4900000000000D+00  0.0000000000000D+00  0.0000000000000D+00
251  2.5000000000000D+00  0.0000000000000D+00  0.0000000000000D+00
252  2.5100000000000D+00  0.0000000000000D+00  0.0000000000000D+00
253  2.5200000000000D+00  0.0000000000000D+00  0.0000000000000D+00
254  2.5300000000000D+00  0.0000000000000D+00  0.0000000000000D+00
255  2.5400000000000D+00  0.0000000000000D+00  0.0000000000000D+00
256  2.5500000000000D+00  0.0000000000000D+00  0.0000000000000D+00
257  2.5600000000000D+00  0.0000000000000D+00  0.0000000000000D+00
258  2.5700000000000D+00  0.0000000000000D+00  0.0000000000000D+00
259  2.5800000000000D+00  0.0000000000000D+00  0.0000000000000D+00
260  2.5900000000000D+00  0.0000000000000D+00  0.0000000000000D+00
261  2.6000000000000D+00  0.0000000000000D+00  0.0000000000000D+00
262  2.6100000000000D+00  0.0000000000000D+00  0.0000000000000D+00
263  2.6200000000000D+00  0.0000000000000D+00  0.0000000000000D+00
264  2.6300000000000D+00  0.0000000000000D+00  0.0000000000000D+00
265  2.6400000000000D+00  0.0000000000000D+00  0.0000000000000D+00
266  2.6500000000000D+00  0.0000000000000D+00  0.0000000000000D+00
267  2.6600000000000D+00  0.0000000000000D+00  0.0000000000000D+00
268  2.6700000000000D+00  0.0000000000000D+00  0.0000000000000D+00
269  2.6800000000000D+00  0.0000000000000D+00  0.0000000000000D+00
270  2.6900000000000D+00  0.0000000000000D+00  0.0000000000000D+00
271  2.7000000000000D+00  0.0000000000000D+00  0.0000000000000D+00
272  2.7100000000000D+00  0.0000000000000D+00  0.0000000000000D+00
273  2.7200000000000D+00  0.0000000000000D+00  0.0000000000000D+00
274  2.7300000000000D+00  0.0000000000000D+00  0.0000000000000D+00
275  2.7400000000000D+00  0.0000000000000D+00  0.0000000000000D+00
276  2.7500000000000D+00  0.0000000000000D+00  0.0000000000000D+00
277  2.7600000000000D+00  0.0000000000000D+00  0.0000000000000D+00
278  2.7700000000000D+00  0.0000000000000D+00  0.0000000000000D+00
279  2.7800000000000D+00  0.0000000000000D+00  0.0000000000000D+00
280  2.7900000000000D+00  0.0000000000000D+00  0.0000000000000D+00
281  2.8000000000000D+00  0.0000000000000D+00  0.0000000000000D+00
282  2.8100000000000D+00  0.0000000000000D+00  0.0000000000000D+00
283  2.8200000000000D+00  0.0000000000000D+00  0.0000000000000D+00
284  2.8300000000000D+00  0.0000000000000D+00  0.0000000000000D+00
285  2.8400000000000D+00  0.0000000000000D+00  0.0000000000000D+00
286  2.8500000000000D+00  0.0000000000000D+00  0.0000000000000D+00
287  2.8600000000000D+00  0.0000000000000D+00  0.0000000000000D+00
288  2.8700000000000D+00  0.0000000000000D+00  0.0000000000000D+00
289  2.8800000000000D+00  0.0000000000000D+00  0.0000000000000D+00
290  2.8900000000000D+00  0.0000000000000D+00  0.0000000000000D+00
291  2.9000000000000D+00  0.0000000000000D+00  0.0000000000000D+00
292  2.9100000000000D+00  0.0000000000000D+00  0.0000000000000D+00
293  2.9200000000000D+00  0.0000000000000D+00  0.0000000000000D+00
294  2.9300000000000D+00  0.0000000000000D+00  0.0000000000000D+00
295  2.9400000000000D+00  0.0000000000000D+00  0.0000000000000D+00
296  2.9500000000000D+00  0.0000000000000D+00  0.0000000000000D+00
297  2.9600000000000D+00  0.0000000000000D+00  0.0000000000000D+00
298  2.9700000000000D+00  0.0000000000000D+00  0.0000000000000D+00
299  2.9800000000000D+00  0.0000000000000D+00  0.0000000000000D+00
300  2.9900000000000D+00  0.0000000000000D+00  0.0000000000000D+00
301  3.0000000000000D+00  0.0000000000000D+00  0.0000000000000D+00
302  3.0100000000000D+00  0.0000000000000D+00  0.0000000000000D+00
303  3.0200000000000D+00  0.0000000000000D+00  0.0000000000000D+00
304  3.0300000000000D+00  0.0000000000000D+00  0.0000000000000D+00
305  3.0400000000000D+00  0.0000000000000D+00  0.0000000000000D+00
306  3.0500000000000D+00  0.0000000000000D+00  0.0000000000000D+00
307  3.0600000000000D+00  0.0000000000000D+00  0.0000000000000D+00
308  3.0700000000000D+00  0.0000000000000D+00  0.0000000000000D+00
309  3.0800000000000D+00  0.0000000000000D+00  0.0000000000000D+00
310  3.0900000000000D+00  0.0000000000000D+00  0.0000000000000D+00
311  3.1000000000000D+00  0.0000000000000D+00  0.0000000000000D+00
312  3.1100000000000D+00  0.0000000000000D+00  0.0000000000000D+00
313  3.1200000000000D+00  0.0000000000000D+00  0.0000000000000D+00
314  3.1300000000000D+00  0.0000000000000D+00  0.0000000000000D+00
315  3.1400000000000D+00  0.0000000000000D+00  0.0000000000000D+00
316  3.1500000000000D+00  0.0000000000000D+00  0.0000000000000D+00
317  3.1600000000000D+00  0.0000000000000D+00  0.0000000000000D+00
318  3.1700000000000D+00  0.0000000000000D+00  0.0000000000000D+00
319  3.1800000000000D+00  0.0000000000000D+00  0.0000000000000D+00
320  3.1900000000000D+00  0.0000000000000D+00  0.0000000000000D+00
321  3.2000000000000D+00  0.0000000000000D+00  0.0000000000000D+00
322  3.2100000000000D+00  0.0000000000000D+00  0.0000000000000D+00
323  3.2200000000000D+00  0.0000000000000D+00  0.0000000000000D+00
324  3.2300000000000D+00  0.0000000000000D+00  0.0000000000000D+00
325  3.2400000000000D+00  0.0000000000000D+00  0.0000000000000D+00
326  3.2500000000000D+00  0.0000000000000D+00  0.0000000000000D+00
327  3.2600000000000D+00  0.0000000000000D+00  0.0000000000000D+00
328  3.2700000000000D+00  0.0000000000000D+00  0.0000000000000D+00
329  3.2800000000000D+00  0.0000000000000D+00  0.0000000000000D+00
330  3.2900000000000D+00  0.0000000000000D+00  0.0000000000000D+00
331  3.3000000000000D+00  0.0000000000000D+00  0.0000000000000D+00
332  3.3100000000000D+00  0.0000000000000D+00  0.0000000000000D+00
333  3.3200000000000D+00  0.0000000000000D+00  0.0000000000000D+00
334  3.3300000000000D+00  0.0000000000000D+00  0.0000000000000D+00
335  3.3400000000000D+00  0.0000000000000D+00  0.0000000000000D+00
336  3.3500000000000D+00  0.0000000000000D+00  0.0000000000000D+00
337  3.3600000000000D+00  0.0000000000000D+00  0.0000000000000D+00
338  3.3700000000000D+00  0.0000000000000D+00  0.0000000000000D+00
339  3.3800000000000D+00  0.0000000000000D+00  0.0000000000000D+00
340  3.3900000000000D+00  0.0000000000000D+00  0.0000000000000D+00
341  3.4000000000000D+00  0.0000000000000D+00  0.0000000000000D+00
342  3.4100000000000D+00  0.0000000000000D+00  0.0000000000000D+00
343  3.4200000000000D+00  0.0000000000000D+00  0.0000000000000D+00
344  3.4300000000000D+00  0.0000000000000D+00  0.0000000000000D+00
345  3.4400000000000D+00  0.0000000000000D+00  0.0000000000000D+00
346  3.4500000000000D+00  0.0000000000000D+00  0.0000000000000D+00
347  3.4600000000000D+00  0.0000000000000D+00  0.0000000000000D+00
348  3.4700000000000D+00  0.0000000000000D+00  0.0000000000000D+00
349  3.4800000000000D+00  0.0000000000000D+00  0.0000000000000D+00
350  3.4900000000000D+00  0.0000000000000D+00  0.0000000000000D+00
351  3.5000000000000D+00  0.0000000000000D+00  0.0000000000000D+00
352  3.5100000000000D+00  0.0000000000000D+00  0.0000000000000D+00
353  3.5200000000000D+00  0.0000000000000D+00  0.0000000000000D+00
354  3.5300000000000D+00  0.0000000000000D+00  0.0000000000000D+00
355  3.5400000000000D+00  0.0000000000000D+00  0.0000000000000D+00
356  3.5500000000000D+00  0.0000000000000D+00  0.0000000000000D+00
357  3.5600000000000D+00  0.0000000000000D+00  0.0000000000000D+00
358  3.5700000000000D+00  0.0000000000000D+00  0.0000000000000D+00
359  3.5800000000000D+00  0.0000000000000D+00  0.0000000000000D+00
360  3.5900000000000D+00  0.0000000000000D+00  0.0000000000000D+00
361  3.6000000000000D+00  0.0000000000000D+00  0.0000000000000D+00
362  3.6100000000000D+00  0.0000000000000D+00  0.0000000000000D+00
363  3.6200000000000D+00  0.0000000000000D+00  0.0000000000000D+00
364  3.6300000000000D+00  0.0000000000000D+00  0.0000000000000D+00
365  3.6400000000000D+00  0.0000000000000D+00  0.0000000000000D+00
366  3.6500000000000D+00  0.0000000000000D+00  0.0000000000000D+00
367  3.6600000000000D+00  0.0000000000000D+00  0.0000000000000D+00
368  3.6700000000000D+00  0.0000000000000D+00  0.0000000000000D+00
369  3.6800000000000D+00  0.0000000000000D+00  0.0000000000000D+00
370  3.6900000000000D+00  0.0000000000000D+00  0.0000000000000D+00
371  3.7000000000000D+00  0.0000000000000D+00  0.0000000000000D+00
372  3.7100000000000D+00  0.0000000000000D+00  0.0000000000000D+00
373  3.7200000000000D+00  0.0000000000000D+00  0.0000000000000D+00
374  3.7300000000000D+00  0.0000000000000D+00  0.0000000000000D+00
375  3.7400000000000D+00  0.0000000000000D+00  0.0000000000000D+00
376  3.7500000000000D+00  0.0000000000000D+00  0.0000000000000D+00
377  3.7600000000000D+00  0.0000000000000D+00  0.0000000000000D+00
378  3.7700000000000D+00  0.0000000000000D+00  0.0000000000000D+00
379  3.7800000000000D+00  0.0000000000000D+00  0.0000000000000D+00
380  3.7900000000000D+00  0.0000000000000D+00  0.0000000000000D+00
381  3.8000000000000D+00  0.0000000000000D+00  0.0000000000000D+00
382  3.8100000000000D+00  0.0000000000000D+00  0.0000000000000D+00
383  3.8200000000000D+00  0.0000000000000D+00  0.0000000000000D+00
384  3.8300000000000D+00  0.0000000000000D+00  0.0000000000000D+00
385  3.8400000000000D+00  0.0000000000000D+00  0.0000000000000D+00
386  3.8500000000000D+00  0.0000000000000D+00  0.0000000000000D+00
387  3.8600000000000D+00  0.0000000000000D+00  0.0000000000000D+00
388  3.8700000000000D+00  0.0000000000000D+00  0.0000000000000D+00
389  3.8800000000000D+00  0.0000000000000D+00  0.0000000000000D+00
390  3.8900000000000D+00  0.0000000000000D+00  0.0000000000000D+00
391  3.9000000000000D+00  0.0000000000000D+00  0.0000000000000D+00
392  3.9100000000000D+00  0.0000000000000D+00  0.0000000000000D+00
393  3.9200000000000D+00  0.0000000000000D+00  0.0000000000000D+00
394  3.9300000000000D+00  0.0000000000000D+00  0.0000000000000D+00
395  3.9400000000000D+00  0.0000000000000D+00  0.0000000000000D+00
396  3.9500000000000D+00  0.0000000000000D+00  0.0000000000000D+00
397  3.9600000000000D+00  0.0000000000000D+00  0.0000000000000D+00
398  3.9700000000000D+00  0.0000000000000D+00  0.0000000000000D+00
399  3.9800000000000D+00  0.0000000000000D+00  0.0000000000000D+00
400  3.9900000000000D+00  0.0000000000000D+00  0.0000000000000D+00
401  4.0000000000000D+00  0.0000000000000D+00  0.0000000000000D+00
402  4.0100000000000D+00  0.0000000000000D+00  0.0000000000000D+00
403  4.0200000000000D+00  0.0000000000000D+00  0.0000000000000D+00
404  4.0300000000000D+00  0.0000000000000D+00  0.0000000000000D+00
405  4.0400000000000D+00  0.0000000000000D+00  0.0000000000000D+00
406  4.0500000000000D+00  0.0000000000000D+00  0.0000000000000D+00
407  4.0600000000000D+00  0.0000000000000D+00  0.0000000000000D+00
408  4.0700000000000D+00  0.0000000000000D+00  0.0000000000000D+00
409  4.0800000000000D+00  0.0000000000000D+00  0.0000000000000D+00
410  4.0900000000000D+00  0.0000000000000D+00  0.0000000000000D+00
411  4.1000000000000D+00  0.0000000000000D+00  0.0000000000000D+00
412  4.1100000000000D+00  0.0000000000000D+00  0.0000000000000D+00
413  4.1200000000000D+00  0.0000000000000D+00  0.0000000000000D+00
414  4.1300000000000D+00  0.0000000000000D+00  0.0000000000000D+00
415  4.1400000000000D+00  0.0000000000000D+00  0.0000000000000D+00
416  4.1500000000000D+00  0.0000000000000D+00  0.0000000000000D+00
417  4.1600000000000D+00  0.0000000000000D+00  0.0000000000000D+00
418  4.1700000000000D+00  0.0000000000000D+00  0.0000000000000D+00
419  4.1800000000000D+00  0.0000000000000D+00  0.0000000000000D+00
420  4.1900000000000D+00  0.0000000000000D+00  0.0000000000000D+00
421  4.2000000000000D+00  0.0000000000000D+00  0.0000000000000D+00
422  4.2100000000000D+00  0.0000000000000D+00  0.0000000000000D+00
423  4.2200000000000D+00  0.0000000000000D+00  0.0000000000000D+00
424  4.2300000000000D+00  0.0000000000000D+00  0.0000000000000D+00
425  4.2400000000000D+00  0.0000000000000D+00  0.0000000000000D+00
426  4.2500000000000D+00  0.0000000000000D+00  0.0000000000000D+00
427  4.2600000000000D+00  0.0000000000000D+00  0.0000000000000D+00
428  4.2700000000000D+00  0.0000000000000D+00  0.0000000000000D+00
429  4.2800000000000D+00  0.0000000000000D+00  0.0000000000000D+00
430  4.2900000000000D+00  0.0000000000000D+00  0.0000000000000D+00
431  4.3000000000000D+00  0.0000000000000D+00  0.0000000000000D+00
432  4.3100000000000D+00  0.0000000000000D+00  0.0000000000000D+00
433  4.3200000000000D+00  0.0000000000000D+00  0.0000000000000D+00
434  4.3300000000000D+00  0.0000000000000D+00  0.0000000000000D+00
435  4.3400000000000D+00  0.0000000000000D+00  0.0000000000000D+00
436  4.3500000000000D+00  0.0000000000000D+00  0.0000000000000D+00
437  4.3600000000000D+00  0.0000000000000D+00  0.0000000000000D+00
438  4.3700000000000D+00  0.0000000000000D+00  0.0000000000000D+00
439  4.3800000000000D+00  0.0000000000000D+00  0.0000000000000D+00
440  4.3900000000000D+00  0.0000000000000D+00  0.0000000000000D+00
441  4.4000000000000D+00  0.0000000000000D+00  0.0000000000000D+00
442  4.4100000000000D+00  0.0000000000000D+00  0.0000000000000D+00
443  4.4200000000000D+00  0.0000000000000D+00  0.0000000000000D+00