Sn    ONCVPSP-3.3.0  r_core=   2.27326   2.62311   1.85601
50.0000     14.0000      180430    zatom,zion,pspd
8 -116133   2     4   600     0    pspcod,pspxc,lmax,lloc,mmax,r2well
5.99000000  6.50000000  0.00000000    rchrg fchrg qchrg
2     4     3     0    nproj
3     1           extension_switch
4     4     0    nprojso
0                         7.4759829223411D-01  5.5854111055368D+00
1  0.0000000000000D+00 -5.5962595668646D-12  7.1777306320797D-13
2  1.0000000000000D-02  7.1849714530399D-03  1.3698677873403D-02
3  2.0000000000000D-02  1.4320049237288D-02  2.7409523389657D-02
4  3.0000000000000D-02  2.1355529657510D-02  4.1144656561797D-02
5  4.0000000000000D-02  2.8242088386538D-02  5.4916102253985D-02
6  5.0000000000000D-02  3.4930968703122D-02  6.8735742883745D-02
7  6.0000000000000D-02  4.1374167998284D-02  8.2615271455718D-02
8  7.0000000000000D-02  4.7524621979620D-02  9.6566145036557D-02
9  8.0000000000000D-02  5.3336386008597D-02  1.1059953877987D-01
10  9.0000000000000D-02  5.8764813012903D-02  1.2472630060922D-01
11  1.0000000000000D-01  6.3766727424379D-02  1.3895690666598D-01
12  1.1000000000000D-01  6.8300594602832D-02  1.5330141762776D-01
13  1.2000000000000D-01  7.2326685217153D-02  1.6776943600137D-01
14  1.3000000000000D-01  7.5807234067848D-02  1.8237006449291D-01
15  1.4000000000000D-01  7.8706592848764D-02  1.9711186555551D-01
16  1.5000000000000D-01  8.0991376361180D-02  2.1200282221330D-01
17  1.6000000000000D-01  8.2630601709831D-02  2.2705030025805D-01
18  1.7000000000000D-01  8.3595820028360D-02  2.4226101191244D-01
19  1.8000000000000D-01  8.3861240300611D-02  2.5764098105132D-01
20  1.9000000000000D-01  8.3403844864704D-02  2.7319551006966D-01
21  2.0000000000000D-01  8.2203496208182D-02  2.8892914848291D-01
22  2.1000000000000D-01  8.0243034685373D-02  3.0484566334236D-01
23  2.2000000000000D-01  7.7508366811879D-02  3.2094801154474D-01
24  2.3000000000000D-01  7.3988543816270D-02  3.3723831411206D-01
25  2.4000000000000D-01  6.9675830154785D-02  3.5371783251373D-01
26  2.5000000000000D-01  6.4565761722344D-02  3.7038694709938D-01
27  2.6000000000000D-01  5.8657193520873D-02  3.8724513770688D-01
28  2.7000000000000D-01  5.1952336575156D-02  4.0429096650564D-01
29  2.8000000000000D-01  4.4456783916233D-02  4.2152206313130D-01
30  2.9000000000000D-01  3.6179525482918D-02  4.3893511216319D-01
31  3.0000000000000D-01  2.7132951823766D-02  4.5652584299139D-01
32  3.1000000000000D-01  1.7332846513472D-02  4.7428902211557D-01
33  3.2000000000000D-01  6.7983672308018D-03  4.9221844791275D-01
34  3.3000000000000D-01 -4.4479845216841D-03  5.1030694790593D-01
35  3.4000000000000D-01 -1.6380405042404D-02  5.2854637856087D-01
36  3.5000000000000D-01 -2.8969841351723D-02  5.4692762763234D-01
37  3.6000000000000D-01 -4.2184055326822D-02  5.6544061907608D-01
38  3.7000000000000D-01 -5.5987698933536D-02  5.8407432053747D-01
39  3.8000000000000D-01 -7.0342400403243D-02  6.0281675342143D-01
40  3.9000000000000D-01 -8.5206861168582D-02  6.2165500554334D-01
41  4.0000000000000D-01 -1.0053696333690D-01  6.4057524635426D-01
42  4.1000000000000D-01 -1.1628588744603D-01  6.5956274472814D-01
43  4.2000000000000D-01 -1.3240424021277D-01  6.7860188929274D-01
44  4.3000000000000D-01 -1.4884019195091D-01  6.9767621128001D-01
45  4.4000000000000D-01 -1.6553962330225D-01  7.1676840986560D-01
46  4.5000000000000D-01 -1.8244628089167D-01  7.3586037996115D-01
47  4.6000000000000D-01 -1.9950194148545D-01  7.5493324241713D-01
48  4.7000000000000D-01 -2.1664658420089D-01  7.7396737658749D-01
49  4.8000000000000D-01 -2.3381857028570D-01  7.9294245520195D-01
50  4.9000000000000D-01 -2.5095482995627D-01  8.1183748148523D-01
51  5.0000000000000D-01 -2.6799105575663D-01  8.3063082845691D-01
52  5.1000000000000D-01 -2.8486190187311D-01  8.4930028033946D-01
53  5.2000000000000D-01 -3.0150118881532D-01  8.6782307599640D-01
54  5.3000000000000D-01 -3.1784211284997D-01  8.8617595431652D-01
55  5.4000000000000D-01 -3.3381745955281D-01  9.0433520145482D-01
56  5.5000000000000D-01 -3.4935982082371D-01  9.2227669983493D-01
57  5.6000000000000D-01 -3.6440181469170D-01  9.3997597881285D-01
58  5.7000000000000D-01 -3.7887630722056D-01  9.5740826689610D-01
59  5.8000000000000D-01 -3.9271663581155D-01  9.7454854540803D-01
60  5.9000000000000D-01 -4.0585683318742D-01  9.9137160348137D-01
61  6.0000000000000D-01 -4.1823185133226D-01  1.0078520942613D+00
62  6.1000000000000D-01 -4.2977778465408D-01  1.0239645921930D+00
63  6.2000000000000D-01 -4.4043209163180D-01  1.0396836512661D+00
64  6.3000000000000D-01 -4.5013381420523D-01  1.0549838640809D+00
65  6.4000000000000D-01 -4.5882379416678D-01  1.0698399216038D+00
66  6.5000000000000D-01 -4.6644488581525D-01  1.0842266734683D+00
67  6.6000000000000D-01 -4.7294216413700D-01  1.0981191886816D+00
68  6.7000000000000D-01 -4.7826312778701D-01  1.1114928165900D+00
69  6.8000000000000D-01 -4.8235789615220D-01  1.1243232479555D+00
70  6.9000000000000D-01 -4.8517939979180D-01  1.1365865759934D+00
71  7.0000000000000D-01 -4.8668356356440D-01  1.1482593572190D+00
72  7.1000000000000D-01 -4.8682948176960D-01  1.1593186719506D+00
73  7.2000000000000D-01 -4.8557958465136D-01  1.1697421843138D+00
74  7.3000000000000D-01 -4.8289979563379D-01  1.1795082015931D+00
75  7.4000000000000D-01 -4.7875967868483D-01  1.1885957327751D+00
76  7.5000000000000D-01 -4.7313257523106D-01  1.1969845461284D+00
77  7.6000000000000D-01 -4.6599573007684D-01  1.2046552256664D+00
78  7.7000000000000D-01 -4.5733040581345D-01  1.2115892263389D+00
79  7.8000000000000D-01 -4.4712198523813D-01  1.2177689278003D+00
80  7.9000000000000D-01 -4.3536006133977D-01  1.2231776866059D+00
81  8.0000000000000D-01 -4.2203851444674D-01  1.2277998866854D+00
82  8.1000000000000D-01 -4.0715557617239D-01  1.2316209879517D+00
83  8.2000000000000D-01 -3.9071387983664D-01  1.2346275728999D+00
84  8.3000000000000D-01 -3.7272049708557D-01  1.2368073910596D+00
85  8.4000000000000D-01 -3.5318696047651D-01  1.2381494011648D+00
86  8.5000000000000D-01 -3.3212927184263D-01  1.2386438109115D+00
87  8.6000000000000D-01 -3.0956789629939D-01  1.2382821141772D+00
88  8.7000000000000D-01 -2.8552774180347D-01  1.2370571255810D+00
89  8.8000000000000D-01 -2.6003812422501D-01  1.2349630122707D+00
90  8.9000000000000D-01 -2.3313271794427D-01  1.2319953228268D+00
91  9.0000000000000D-01 -2.0484949203430D-01  1.2281510131808D+00
92  9.1000000000000D-01 -1.7523063214274D-01  1.2234284694519D+00
93  9.2000000000000D-01 -1.4432244823692D-01  1.2178275276133D+00
94  9.3000000000000D-01 -1.1217526842714D-01  1.2113494899053D+00
95  9.4000000000000D-01 -7.8843319134232D-02  1.2039971379226D+00
96  9.5000000000000D-01 -4.4384591917297D-02  1.1957747423087D+00
97  9.6000000000000D-01 -8.8606973273592D-03  1.1866880689993D+00
98  9.7000000000000D-01  2.7663293799433D-02  1.1767443819667D+00
99  9.8000000000000D-01  6.5119021147236D-02  1.1659524424227D+00
100  9.9000000000000D-01  1.0343501731706D-01  1.1543225044505D+00
101  1.0000000000000D+00  1.4253690126246D-01  1.1418663070409D+00
102  1.0100000000000D+00  1.8234758216926D-01  1.1285970625215D+00
103  1.0200000000000D+00  2.2278747314352D-01  1.1145294413739D+00
104  1.0300000000000D+00  2.6377471403202D-01  1.0996795534455D+00
105  1.0400000000000D+00  3.0522540266551D-01  1.0840649255717D+00
106  1.0500000000000D+00  3.4705383377721D-01  1.0677044756334D+00
107  1.0600000000000D+00  3.8917274481983D-01  1.0506184830845D+00
108  1.0700000000000D+00  4.3149356787462D-01  1.0328285559960D+00
109  1.0800000000000D+00  4.7392668681924D-01  1.0143575946704D+00
110  1.0900000000000D+00  5.1638169889996D-01  9.9522975189043D-01
111  1.1000000000000D+00  5.5876767983113D-01  9.7547038987803D-01
112  1.1100000000000D+00  6.0099345152938D-01  9.5510603404579D-01
113  1.1200000000000D+00  6.4296785157624D-01  9.3416432363530D-01
114  1.1300000000000D+00  6.8460000349262D-01  9.1267395934470D-01
115  1.1400000000000D+00  7.2579958690146D-01  8.9066464805651D-01
116  1.1500000000000D+00  7.6647710665101D-01  8.6816704478726D-01
117  1.1600000000000D+00  8.0654415997246D-01  8.4521269198805D-01
118  1.1700000000000D+00  8.4591370074877D-01  8.2183395633329D-01
119  1.1800000000000D+00  8.8450029997684D-01  7.9806396314330D-01
120  1.1900000000000D+00  9.2222040151803D-01  7.7393652859465D-01
121  1.2000000000000D+00  9.5899257224829D-01  7.4948608987970D-01
122  1.2100000000000D+00  9.9473774572771D-01  7.2474763348140D-01
123  1.2200000000000D+00  1.0293794585394D+00  6.9975662173955D-01
124  1.2300000000000D+00  1.0628440784712D+00  6.7454891788920D-01
125  1.2400000000000D+00  1.0950610237342D+00  6.4916070975679D-01
126  1.2500000000000D+00  1.1259629724437D+00  6.2362843230608D-01
127  1.2600000000000D+00  1.1554860616343D+00  5.9798868923143D-01
128  1.2700000000000D+00  1.1835700751012D+00  5.7227817379824D-01
129  1.2800000000000D+00  1.2101586193974D+00  5.4653358913534D-01
130  1.2900000000000D+00  1.2351992873824D+00  5.2079156818823D-01
131  1.3000000000000D+00  1.2586438087362D+00  4.9508859354277D-01
132  1.3100000000000D+00  1.2804481868937D+00  4.6946091733243D-01
133  1.3200000000000D+00  1.3005728219488D+00  4.4394448144390D-01
134  1.3300000000000D+00  1.3189826190666D+00  4.1857483823557D-01
135  1.3400000000000D+00  1.3356470820211D+00  3.9338707198561D-01
136  1.3500000000000D+00  1.3505403915713D+00  3.6841572128397D-01
137  1.3600000000000D+00  1.3636414683385D+00  3.4369470258423D-01
138  1.3700000000000D+00  1.3749340200086D+00  3.1925723512854D-01
139  1.3800000000000D+00  1.3844065727106D+00  2.9513576745469D-01
140  1.3900000000000D+00  1.3920524863899D+00  2.7136190569910D-01
141  1.4000000000000D+00  1.3978699542270D+00  2.4796634389516D-01
142  1.4100000000000D+00  1.4018619860278D+00  2.2497879647313D-01
143  1.4200000000000D+00  1.4040363756691D+00  2.0242793315969D-01
144  1.4300000000000D+00  1.4044056527754D+00  1.8034131646168D-01
145  1.4400000000000D+00  1.4029870186762D+00  1.5874534193594D-01
146  1.4500000000000D+00  1.3998022670217D+00  1.3766518140875D-01
147  1.4600000000000D+00  1.3948776892131D+00  1.1712472933360D-01
148  1.4700000000000D+00  1.3882439650450D+00  9.7146552449021D-02
149  1.4800000000000D+00  1.3799360389553D+00  7.7751842889535D-02
150  1.4900000000000D+00  1.3699929822227D+00  5.8960374922425D-02
151  1.5000000000000D+00  1.3584578417467D+00  4.0790465419108D-02
152  1.5100000000000D+00  1.3453774757369D+00  2.3258938238648D-02
153  1.5200000000000D+00  1.3308023770648D+00  6.3810926049012D-03
154  1.5300000000000D+00  1.3147864847326D+00 -9.8293243730160D-03
155  1.5400000000000D+00  1.2973869841875D+00 -2.5360140951887D-02
156  1.5500000000000D+00  1.2786640971207D+00 -4.0200779679906D-02
157  1.5600000000000D+00  1.2586808614382D+00 -5.4342271896446D-02
158  1.5700000000000D+00  1.2375029021899D+00 -6.7777267769606D-02
159  1.5800000000000D+00  1.2151981941247D+00 -8.0500041752861D-02
160  1.5900000000000D+00  1.1918368167547D+00 -9.2506493488498D-02
161  1.6000000000000D+00  1.1674907026065D+00 -1.0379414402335D-01
162  1.6100000000000D+00  1.1422333795761D+00 -1.1436212741935D-01
163  1.6200000000000D+00  1.1161397081166D+00 -1.2421117762889D-01
164  1.6300000000000D+00  1.0892856141470D+00 -1.3334361074728D-01
165  1.6400000000000D+00  1.0617478184773D+00 -1.4176330254132D-01
166  1.6500000000000D+00  1.0336035635885D+00 -1.4947566137937D-01
167  1.6600000000000D+00  1.0049303386107D+00 -1.5648759649836D-01
168  1.6700000000000D+00  9.7580560328186D-01 -1.6280748174585D-01
169  1.6800000000000D+00  9.4630651175816D-01 -1.6844511476564D-01
170  1.6900000000000D+00  9.1650963699423D-01 -1.7341167178214D-01
171  1.7000000000000D+00  8.8649069657894D-01 -1.7771965797842D-01
172  1.7100000000000D+00  8.5632428066040D-01 -1.8138285364697D-01
173  1.7200000000000D+00  8.2608358286533D-01 -1.8441625612555D-01
174  1.7300000000000D+00  7.9584013472482D-01 -1.8683601772856D-01
175  1.7400000000000D+00  7.6566354455459D-01 -1.8865937969428D-01
176  1.7500000000000D+00  7.3562124112538D-01 -1.8990460239710D-01
177  1.7600000000000D+00  7.0577822315911D-01 -1.9059089184331D-01
178  1.7700000000000D+00  6.7619681473732D-01 -1.9073832274500D-01
179  1.7800000000000D+00  6.4693642780814D-01 -1.9036775818037D-01
180  1.7900000000000D+00  6.1805333154911D-01 -1.8950076618289D-01
181  1.8000000000000D+00  5.8960042573818D-01 -1.8815953266727D-01
182  1.8100000000000D+00  5.6162704545763D-01 -1.8636677496764D-01
183  1.8200000000000D+00  5.3417869552329D-01 -1.8414564112605D-01
184  1.8300000000000D+00  5.0729699237806D-01 -1.8151963712399D-01
185  1.8400000000000D+00  4.8101938730945D-01 -1.7851251483354D-01
186  1.8500000000000D+00  4.5537872377450D-01 -1.7514813895007D-01
187  1.8600000000000D+00  4.3040343079195D-01 -1.7145043758411D-01
188  1.8700000000000D+00  4.0611799541197D-01 -1.6744338480657D-01
189  1.8800000000000D+00  3.8254333024609D-01 -1.6315097868784D-01
190  1.8900000000000D+00  3.5969727016880D-01 -1.5859725663614D-01
191  1.9000000000000D+00  3.3759523622350D-01 -1.5380632806517D-01
192  1.9100000000000D+00  3.1624998252709D-01 -1.4880228369127D-01
193  1.9200000000000D+00  2.9567152159532D-01 -1.4360913638532D-01
194  1.9300000000000D+00  2.7586733525371D-01 -1.3825079007908D-01
195  1.9400000000000D+00  2.5684240956319D-01 -1.3275098854305D-01
196  1.9500000000000D+00  2.3859931666423D-01 -1.2713326938676D-01
197  1.9600000000000D+00  2.2113831289008D-01 -1.2142091971899D-01
198  1.9700000000000D+00  2.0445743497015D-01 -1.1563693139026D-01
199  1.9800000000000D+00  1.8855260557284D-01 -1.0980395735951D-01
200  1.9900000000000D+00  1.7341774452390D-01 -1.0394426884936D-01
201  2.0000000000000D+00  1.5904488566702D-01 -9.8079713434595D-02
202  2.0100000000000D+00  1.4542429815165D-01 -9.2231674018929D-02
203  2.0200000000000D+00  1.3254461170075D-01 -8.6421028797338D-02
204  2.0300000000000D+00  1.2039294508637D-01 -8.0668112224338D-02
205  2.0400000000000D+00  1.0895503707734D-01 -7.4992677016210D-02
206  2.0500000000000D+00  9.8215379071743D-02 -6.9413857254510D-02
207  2.0600000000000D+00  8.8157348947422D-02 -6.3950132590567D-02
208  2.0700000000000D+00  7.8763345011032D-02 -5.8619293620695D-02
209  2.0800000000000D+00  7.0014919752220D-02 -5.3438408445413D-02
210  2.0900000000000D+00  6.1892912561219D-02 -4.8423790454273D-02
211  2.1000000000000D+00  5.4377580419674D-02 -4.3590967381014D-02
212  2.1100000000000D+00  4.7448726784390D-02 -3.8954651638052D-02
213  2.1200000000000D+00  4.1085826773761D-02 -3.4528711998095D-02
214  2.1300000000000D+00  3.5268149195354D-02 -3.0326146624870D-02
215  2.1400000000000D+00  2.9974874339696D-02 -2.6359057498764D-02
216  2.1500000000000D+00  2.5185206445758D-02 -2.2638626284954D-02
217  2.1600000000000D+00  2.0878481818235D-02 -1.9175091627800D-02
218  2.1700000000000D+00  1.7034270081670D-02 -1.5977727967540D-02
219  2.1800000000000D+00  1.3632469676945D-02 -1.3054825854280D-02
220  2.1900000000000D+00  1.0653396907218D-02 -1.0413673795197D-02
221  2.2000000000000D+00  8.0790196634615D-03 -8.0620129881805D-03
222  2.2100000000000D+00  5.8889137302818D-03 -6.0027666569644D-03
223  2.2200000000000D+00  4.0633033366821D-03 -4.2378013712283D-03
224  2.2300000000000D+00  2.5808132643998D-03 -2.7645274874720D-03
225  2.2400000000000D+00  1.4409501801336D-03 -1.6066094550021D-03
226  2.2500000000000D+00  6.3456881210586D-04 -7.7496068925683D-04
227  2.2600000000000D+00  1.3579744441147D-04 -2.5420142974930D-04
228  2.2700000000000D+00 -1.0843144844120D-04  1.3114573423141D-05
229  2.2800000000000D+00 -1.5656836226278D-04  9.3043577303021D-05
230  2.2900000000000D+00 -9.3484830763605D-05  6.4779598434136D-05
231  2.3000000000000D+00 -4.2612727142676D-06  3.1186325249401D-06
232  2.3100000000000D+00  2.9574302463643D-05 -2.1933059480257D-05
233  2.3200000000000D+00  2.1965842655957D-05 -1.6635157783706D-05
234  2.3300000000000D+00 -1.6011444393869D-06  1.1065140866292D-06
235  2.3400000000000D+00 -6.3192453095566D-06  4.4245013329575D-06
236  2.3500000000000D+00 -3.7442903750382D-06  2.6481376540525D-06
237  2.3600000000000D+00  1.9468297665002D-07 -7.6777834367769D-08
238  2.3700000000000D+00  4.0605387212389D-07 -1.6013694404501D-07
239  2.3800000000000D+00  1.7883359253119D-07 -7.0527255043138D-08
240  2.3900000000000D+00  0.0000000000000D+00  0.0000000000000D+00
241  2.4000000000000D+00  0.0000000000000D+00  0.0000000000000D+00
242  2.4100000000000D+00  0.0000000000000D+00  0.0000000000000D+00
243  2.4200000000000D+00  0.0000000000000D+00  0.0000000000000D+00
244  2.4300000000000D+00  0.0000000000000D+00  0.0000000000000D+00
245  2.4400000000000D+00  0.0000000000000D+00  0.0000000000000D+00
246  2.4500000000000D+00  0.0000000000000D+00  0.0000000000000D+00
247  2.4600000000000D+00  0.0000000000000D+00  0.0000000000000D+00
248  2.4700000000000D+00  0.0000000000000D+00  0.0000000000000D+00
249  2.4800000000000D+00  0.0000000000000D+00  0.0000000000000D+00
250  2.4900000000000D+00  0.0000000000000D+00  0.0000000000000D+00
251  2.5000000000000D+00  0.0000000000000D+00  0.0000000000000D+00
252  2.5100000000000D+00  0.0000000000000D+00  0.0000000000000D+00
253  2.5200000000000D+00  0.0000000000000D+00  0.0000000000000D+00
254  2.5300000000000D+00  0.0000000000000D+00  0.0000000000000D+00
255  2.5400000000000D+00  0.0000000000000D+00  0.0000000000000D+00
256  2.5500000000000D+00  0.0000000000000D+00  0.0000000000000D+00
257  2.5600000000000D+00  0.0000000000000D+00  0.0000000000000D+00
258  2.5700000000000D+00  0.0000000000000D+00  0.0000000000000D+00
259  2.5800000000000D+00  0.0000000000000D+00  0.0000000000000D+00
260  2.5900000000000D+00  0.0000000000000D+00  0.0000000000000D+00
261  2.6000000000000D+00  0.0000000000000D+00  0.0000000000000D+00
262  2.6100000000000D+00  0.0000000000000D+00  0.0000000000000D+00
263  2.6200000000000D+00  0.0000000000000D+00  0.0000000000000D+00
264  2.6300000000000D+00  0.0000000000000D+00  0.0000000000000D+00
265  2.6400000000000D+00  0.0000000000000D+00  0.0000000000000D+00
266  2.6500000000000D+00  0.0000000000000D+00  0.0000000000000D+00
267  2.6600000000000D+00  0.0000000000000D+00  0.0000000000000D+00
268  2.6700000000000D+00  0.0000000000000D+00  0.0000000000000D+00
269  2.6800000000000D+00  0.0000000000000D+00  0.0000000000000D+00
270  2.6900000000000D+00  0.0000000000000D+00  0.0000000000000D+00
271  2.7000000000000D+00  0.0000000000000D+00  0.0000000000000D+00
272  2.7100000000000D+00  0.0000000000000D+00  0.0000000000000D+00
273  2.7200000000000D+00  0.0000000000000D+00  0.0000000000000D+00
274  2.7300000000000D+00  0.0000000000000D+00  0.0000000000000D+00
275  2.7400000000000D+00  0.0000000000000D+00  0.0000000000000D+00
276  2.7500000000000D+00  0.0000000000000D+00  0.0000000000000D+00
277  2.7600000000000D+00  0.0000000000000D+00  0.0000000000000D+00
278  2.7700000000000D+00  0.0000000000000D+00  0.0000000000000D+00
279  2.7800000000000D+00  0.0000000000000D+00  0.0000000000000D+00
280  2.7900000000000D+00  0.0000000000000D+00  0.0000000000000D+00
281  2.8000000000000D+00  0.0000000000000D+00  0.0000000000000D+00
282  2.8100000000000D+00  0.0000000000000D+00  0.0000000000000D+00
283  2.8200000000000D+00  0.0000000000000D+00  0.0000000000000D+00
284  2.8300000000000D+00  0.0000000000000D+00  0.0000000000000D+00
285  2.8400000000000D+00  0.0000000000000D+00  0.0000000000000D+00
286  2.8500000000000D+00  0.0000000000000D+00  0.0000000000000D+00
287  2.8600000000000D+00  0.0000000000000D+00  0.0000000000000D+00
288  2.8700000000000D+00  0.0000000000000D+00  0.0000000000000D+00
289  2.8800000000000D+00  0.0000000000000D+00  0.0000000000000D+00
290  2.8900000000000D+00  0.0000000000000D+00  0.0000000000000D+00
291  2.9000000000000D+00  0.0000000000000D+00  0.0000000000000D+00
292  2.9100000000000D+00  0.0000000000000D+00  0.0000000000000D+00
293  2.9200000000000D+00  0.0000000000000D+00  0.0000000000000D+00
294  2.9300000000000D+00  0.0000000000000D+00  0.0000000000000D+00
295  2.9400000000000D+00  0.0000000000000D+00  0.0000000000000D+00
296  2.9500000000000D+00  0.0000000000000D+00  0.0000000000000D+00
297  2.9600000000000D+00  0.0000000000000D+00  0.0000000000000D+00
298  2.9700000000000D+00  0.0000000000000D+00  0.0000000000000D+00
299  2.9800000000000D+00  0.0000000000000D+00  0.0000000000000D+00
300  2.9900000000000D+00  0.0000000000000D+00  0.0000000000000D+00
301  3.0000000000000D+00  0.0000000000000D+00  0.0000000000000D+00
302  3.0100000000000D+00  0.0000000000000D+00  0.0000000000000D+00
303  3.0200000000000D+00  0.0000000000000D+00  0.0000000000000D+00
304  3.0300000000000D+00  0.0000000000000D+00  0.0000000000000D+00
305  3.0400000000000D+00  0.0000000000000D+00  0.0000000000000D+00
306  3.0500000000000D+00  0.0000000000000D+00  0.0000000000000D+00
307  3.0600000000000D+00  0.0000000000000D+00  0.0000000000000D+00
308  3.0700000000000D+00  0.0000000000000D+00  0.0000000000000D+00
309  3.0800000000000D+00  0.0000000000000D+00  0.0000000000000D+00
310  3.0900000000000D+00  0.0000000000000D+00  0.0000000000000D+00
311  3.1000000000000D+00  0.0000000000000D+00  0.0000000000000D+00
312  3.1100000000000D+00  0.0000000000000D+00  0.0000000000000D+00
313  3.1200000000000D+00  0.0000000000000D+00  0.0000000000000D+00
314  3.1300000000000D+00  0.0000000000000D+00  0.0000000000000D+00
315  3.1400000000000D+00  0.0000000000000D+00  0.0000000000000D+00
316  3.1500000000000D+00  0.0000000000000D+00  0.0000000000000D+00
317  3.1600000000000D+00  0.0000000000000D+00  0.0000000000000D+00
318  3.1700000000000D+00  0.0000000000000D+00  0.0000000000000D+00
319  3.1800000000000D+00  0.0000000000000D+00  0.0000000000000D+00
320  3.1900000000000D+00  0.0000000000000D+00  0.0000000000000D+00
321  3.2000000000000D+00  0.0000000000000D+00  0.0000000000000D+00
322  3.2100000000000D+00  0.0000000000000D+00  0.0000000000000D+00
323  3.2200000000000D+00  0.0000000000000D+00  0.0000000000000D+00
324  3.2300000000000D+00  0.0000000000000D+00  0.0000000000000D+00
325  3.2400000000000D+00  0.0000000000000D+00  0.0000000000000D+00
326  3.2500000000000D+00  0.0000000000000D+00  0.0000000000000D+00
327  3.2600000000000D+00  0.0000000000000D+00  0.0000000000000D+00
328  3.2700000000000D+00  0.0000000000000D+00  0.0000000000000D+00
329  3.2800000000000D+00  0.0000000000000D+00  0.0000000000000D+00
330  3.2900000000000D+00  0.0000000000000D+00  0.0000000000000D+00
331  3.3000000000000D+00  0.0000000000000D+00  0.0000000000000D+00
332  3.3100000000000D+00  0.0000000000000D+00  0.0000000000000D+00
333  3.3200000000000D+00  0.0000000000000D+00  0.0000000000000D+00
334  3.3300000000000D+00  0.0000000000000D+00  0.0000000000000D+00
335  3.3400000000000D+00  0.0000000000000D+00  0.0000000000000D+00
336  3.3500000000000D+00  0.0000000000000D+00  0.0000000000000D+00
337  3.3600000000000D+00  0.0000000000000D+00  0.0000000000000D+00
338  3.3700000000000D+00  0.0000000000000D+00  0.0000000000000D+00
339  3.3800000000000D+00  0.0000000000000D+00  0.0000000000000D+00
340  3.3900000000000D+00  0.0000000000000D+00  0.0000000000000D+00
341  3.4000000000000D+00  0.0000000000000D+00  0.0000000000000D+00
342  3.4100000000000D+00  0.0000000000000D+00  0.0000000000000D+00
343  3.4200000000000D+00  0.0000000000000D+00  0.0000000000000D+00
344  3.4300000000000D+00  0.0000000000000D+00  0.0000000000000D+00
345  3.4400000000000D+00  0.0000000000000D+00  0.0000000000000D+00
346  3.4500000000000D+00  0.0000000000000D+00  0.0000000000000D+00
347  3.4600000000000D+00  0.0000000000000D+00  0.0000000000000D+00
348  3.4700000000000D+00  0.0000000000000D+00  0.0000000000000D+00
349  3.4800000000000D+00  0.0000000000000D+00  0.0000000000000D+00
350  3.4900000000000D+00  0.0000000000000D+00  0.0000000000000D+00
351  3.5000000000000D+00  0.0000000000000D+00  0.0000000000000D+00
352  3.5100000000000D+00  0.0000000000000D+00  0.0000000000000D+00
353  3.5200000000000D+00  0.0000000000000D+00  0.0000000000000D+00
354  3.5300000000000D+00  0.0000000000000D+00  0.0000000000000D+00
355  3.5400000000000D+00  0.0000000000000D+00  0.0000000000000D+00
356  3.5500000000000D+00  0.0000000000000D+00  0.0000000000000D+00
357  3.5600000000000D+00  0.0000000000000D+00  0.0000000000000D+00
358  3.5700000000000D+00  0.0000000000000D+00  0.0000000000000D+00
359  3.5800000000000D+00  0.0000000000000D+00  0.0000000000000D+00
360  3.5900000000000D+00  0.0000000000000D+00  0.0000000000000D+00
361  3.6000000000000D+00  0.0000000000000D+00  0.0000000000000D+00
362  3.6100000000000D+00  0.0000000000000D+00  0.0000000000000D+00
363  3.6200000000000D+00  0.0000000000000D+00  0.0000000000000D+00
364  3.6300000000000D+00  0.0000000000000D+00  0.0000000000000D+00
365  3.6400000000000D+00  0.0000000000000D+00  0.0000000000000D+00
366  3.6500000000000D+00  0.0000000000000D+00  0.0000000000000D+00
367  3.6600000000000D+00  0.0000000000000D+00  0.0000000000000D+00
368  3.6700000000000D+00  0.0000000000000D+00  0.0000000000000D+00
369  3.6800000000000D+00  0.0000000000000D+00  0.0000000000000D+00
370  3.6900000000000D+00  0.0000000000000D+00  0.0000000000000D+00
371  3.7000000000000D+00  0.0000000000000D+00  0.0000000000000D+00
372  3.7100000000000D+00  0.0000000000000D+00  0.0000000000000D+00
373  3.7200000000000D+00  0.0000000000000D+00  0.0000000000000D+00
374  3.7300000000000D+00  0.0000000000000D+00  0.0000000000000D+00
375  3.7400000000000D+00  0.0000000000000D+00  0.0000000000000D+00
376  3.7500000000000D+00  0.0000000000000D+00  0.0000000000000D+00
377  3.7600000000000D+00  0.0000000000000D+00  0.0000000000000D+00
378  3.7700000000000D+00  0.0000000000000D+00  0.0000000000000D+00
379  3.7800000000000D+00  0.0000000000000D+00  0.0000000000000D+00
380  3.7900000000000D+00  0.0000000000000D+00  0.0000000000000D+00
381  3.8000000000000D+00  0.0000000000000D+00  0.0000000000000D+00
382  3.8100000000000D+00  0.0000000000000D+00  0.0000000000000D+00
383  3.8200000000000D+00  0.0000000000000D+00  0.0000000000000D+00
384  3.8300000000000D+00  0.0000000000000D+00  0.0000000000000D+00
385  3.8400000000000D+00  0.0000000000000D+00  0.0000000000000D+00
386  3.8500000000000D+00  0.0000000000000D+00  0.0000000000000D+00
387  3.8600000000000D+00  0.0000000000000D+00  0.0000000000000D+00
388  3.8700000000000D+00  0.0000000000000D+00  0.0000000000000D+00
389  3.8800000000000D+00  0.0000000000000D+00  0.0000000000000D+00
390  3.8900000000000D+00  0.0000000000000D+00  0.0000000000000D+00
391  3.9000000000000D+00  0.0000000000000D+00  0.0000000000000D+00
392  3.9100000000000D+00  0.0000000000000D+00  0.0000000000000D+00
393  3.9200000000000D+00  0.0000000000000D+00  0.0000000000000D+00
394  3.9300000000000D+00  0.0000000000000D+00  0.0000000000000D+00
395  3.9400000000000D+00  0.0000000000000D+00  0.0000000000000D+00
396  3.9500000000000D+00  0.0000000000000D+00  0.0000000000000D+00
397  3.9600000000000D+00  0.0000000000000D+00  0.0000000000000D+00
398  3.9700000000000D+00  0.0000000000000D+00  0.0000000000000D+00
399  3.9800000000000D+00  0.0000000000000D+00  0.0000000000000D+00
400  3.9900000000000D+00  0.0000000000000D+00  0.0000000000000D+00
401  4.0000000000000D+00  0.0000000000000D+00  0.0000000000000D+00
402  4.0100000000000D+00  0.0000000000000D+00  0.0000000000000D+00
403  4.0200000000000D+00  0.0000000000000D+00  0.0000000000000D+00
404  4.0300000000000D+00  0.0000000000000D+00  0.0000000000000D+00
405  4.0400000000000D+00  0.0000000000000D+00  0.0000000000000D+00
406  4.0500000000000D+00  0.0000000000000D+00  0.0000000000000D+00
407  4.0600000000000D+00  0.0000000000000D+00  0.0000000000000D+00
408  4.0700000000000D+00  0.0000000000000D+00  0.0000000000000D+00
409  4.0800000000000D+00  0.0000000000000D+00  0.0000000000000D+00
410  4.0900000000000D+00  0.0000000000000D+00  0.0000000000000D+00
411  4.1000000000000D+00  0.0000000000000D+00  0.0000000000000D+00
412  4.1100000000000D+00  0.0000000000000D+00  0.0000000000000D+00
413  4.1200000000000D+00  0.0000000000000D+00  0.0000000000000D+00
414  4.1300000000000D+00  0.0000000000000D+00  0.0000000000000D+00
415  4.1400000000000D+00  0.0000000000000D+00  0.0000000000000D+00
416  4.1500000000000D+00  0.0000000000000D+00  0.0000000000000D+00
417  4.1600000000000D+00  0.0000000000000D+00  0.0000000000000D+00
418  4.1700000000000D+00  0.0000000000000D+00  0.0000000000000D+00
419  4.1800000000000D+00  0.0000000000000D+00  0.0000000000000D+00
420  4.1900000000000D+00  0.0000000000000D+00  0.0000000000000D+00
421  4.2000000000000D+00  0.0000000000000D+00  0.0000000000000D+00
422  4.2100000000000D+00  0.0000000000000D+00  0.0000000000000D+00
423  4.2200000000000D+00  0.0000000000000D+00  0.0000000000000D+00
424  4.2300000000000D+00  0.0000000000000D+00  0.0000000000000D+00
425  4.2400000000000D+00  0.0000000000000D+00  0.0000000000000D+00
426  4.2500000000000D+00  0.0000000000000D+00  0.0000000000000D+00
427  4.2600000000000D+00  0.0000000000000D+00  0.0000000000000D+00
428  4.2700000000000D+00  0.0000000000000D+00  0.0000000000000D+00
429  4.2800000000000D+00  0.0000000000000D+00  0.0000000000000D+00
430  4.2900000000000D+00  0.0000000000000D+00  0.0000000000000D+00
431  4.3000000000000D+00  0.0000000000000D+00  0.0000000000000D+00
432  4.3100000000000D+00  0.0000000000000D+00  0.0000000000000D+00
433  4.3200000000000D+00  0.0000000000000D+00  0.0000000000000D+00
434  4.3300000000000D+00  0.0000000000000D+00  0.0000000000000D+00
435  4.3400000000000D+00  0.0000000000000D+00  0.0000000000000D+00
436  4.3500000000000D+00  0.0000000000000D+00  0.0000000000000D+00
437  4.3600000000000D+00  0.0000000000000D+00  0.0000000000000D+00
438  4.3700000000000D+00  0.0000000000000D+00  0.0000000000000D+00
439  4.3800000000000D+00  0.0000000000000D+00  0.0000000000000D+00
440  4.3900000000000D+00  0.0000000000000D+00  0.0000000000000D+00
441  4.4000000000000D+00  0.0000000000000D+00  0.0000000000000D+00
442  4.4100000000000D+00  0.0000000000000D+00  0.0000000000000D+00
443  4.4200000000000D+00  0.0000000000000D+00  0.0000000000000D+00