Sr    ONCVPSP-3.3.0  r_core=   1.66721   1.31335   1.51547
38.0000     10.0000      180429    zatom,zion,pspd
8 -116133   2     4   600     0    pspcod,pspxc,lmax,lloc,mmax,r2well
5.99000000  6.00000000  0.00000000    rchrg fchrg qchrg
2     3     3     0    nproj
3     1           extension_switch
4     4     0    nprojso
0                         1.0432210651846D+00  1.0028197571802D+01
1  0.0000000000000D+00  3.7715888745460D-10 -7.0333572299575D-11
2  1.0000000000000D-02 -2.5371223740437D-02  4.2993041363893D-02
3  2.0000000000000D-02 -5.0640997035970D-02  8.5947895749534D-02
4  3.0000000000000D-02 -7.5708609624651D-02  1.2882645416856D-01
5  4.0000000000000D-02 -1.0047482312461D-01  1.7159076237139D-01
6  5.0000000000000D-02 -1.2484258585624D-01  2.1420309513212D-01
7  6.0000000000000D-02 -1.4871772259300D-01  2.5662602688265D-01
8  7.0000000000000D-02 -1.7200959133041D-01  2.9882249756234D-01
9  8.0000000000000D-02 -1.9463169954032D-01  3.4075587262029D-01
10  9.0000000000000D-02 -2.1650227284133D-01  3.8238999619331D-01
11  1.0000000000000D-01 -2.3754476956231D-01  4.2368923658434D-01
12  1.1000000000000D-01 -2.5768833529890D-01  4.6461852328151D-01
13  1.2000000000000D-01 -2.7686819225493D-01  5.0514337488569D-01
14  1.3000000000000D-01 -2.9502595891630D-01  5.4522991745362D-01
15  1.4000000000000D-01 -3.1210989641428D-01  5.8484489291206D-01
16  1.5000000000000D-01 -3.2807507879192D-01  6.2395565735458D-01
17  1.6000000000000D-01 -3.4288348527986D-01  6.6253016919452D-01
18  1.7000000000000D-01 -3.5650401360873D-01  7.0053696731339D-01
19  1.8000000000000D-01 -3.6891241432402D-01  7.3794513951198D-01
20  1.9000000000000D-01 -3.8009114701445D-01  7.7472428173849D-01
21  2.0000000000000D-01 -3.9002916030838D-01  8.1084444873356D-01
22  2.1000000000000D-01 -3.9872159842199D-01  8.4627609689243D-01
23  2.2000000000000D-01 -4.0616943794902D-01  8.8099002029902D-01
24  2.3000000000000D-01 -4.1237905945387D-01  9.1495728103219D-01
25  2.4000000000000D-01 -4.1736175925785D-01  9.4814913497963D-01
26  2.5000000000000D-01 -4.2113320758262D-01  9.8053695451735D-01
27  2.6000000000000D-01 -4.2371285992706D-01  1.0120921495215D+00
28  2.7000000000000D-01 -4.2512332919357D-01  1.0427860882711D+00
29  2.8000000000000D-01 -4.2538972664077D-01  1.0725900198761D+00
30  2.9000000000000D-01 -4.2453898021402D-01  1.1014749999199D+00
31  3.0000000000000D-01 -4.2259913918548D-01  1.1294118210436D+00
32  3.1000000000000D-01 -4.1959867431851D-01  1.1563709502116D+00
33  3.2000000000000D-01 -4.1556578294964D-01  1.1823224743953D+00
34  3.3000000000000D-01 -4.1052770845402D-01  1.2072360563772D+00
35  3.4000000000000D-01 -4.0451008352294D-01  1.2310809023316D+00
36  3.5000000000000D-01 -3.9753630653488D-01  1.2538257427601D+00
37  3.6000000000000D-01 -3.8962696004323D-01  1.2754388282639D+00
38  3.7000000000000D-01 -3.8079928003631D-01  1.2958879415165D+00
39  3.8000000000000D-01 -3.7106668415012D-01  1.3151404266605D+00
40  3.9000000000000D-01 -3.6043836643580D-01  1.3331632371898D+00
41  4.0000000000000D-01 -3.4891896560558D-01  1.3499230031997D+00
42  4.1000000000000D-01 -3.3650831291005D-01  1.3653861186909D+00
43  4.2000000000000D-01 -3.2320126494170D-01  1.3795188493990D+00
44  4.3000000000000D-01 -3.0898762572447D-01  1.3922874613923D+00
45  4.4000000000000D-01 -2.9385216144296D-01  1.4036583704442D+00
46  4.5000000000000D-01 -2.7777471010179D-01  1.4135983119369D+00
47  4.6000000000000D-01 -2.6073038729188D-01  1.4220745307942D+00
48  4.7000000000000D-01 -2.4268988809092D-01  1.4290549906874D+00
49  4.8000000000000D-01 -2.2361988395137D-01  1.4345086014885D+00
50  4.9000000000000D-01 -2.0348351224227D-01  1.4384054636930D+00
51  5.0000000000000D-01 -1.8224095492658D-01  1.4407171282710D+00
52  5.1000000000000D-01 -1.5985010168470D-01  1.4414168701616D+00
53  5.2000000000000D-01 -1.3626729165153D-01  1.4404799733840D+00
54  5.3000000000000D-01 -1.1144812683455D-01  1.4378840255151D+00
55  5.4000000000000D-01 -8.5348349231635D-02  1.4336092190722D+00
56  5.5000000000000D-01 -5.7924772689402D-02  1.4276386571508D+00
57  5.6000000000000D-01 -2.9136259643429D-02  1.4199586604972D+00
58  5.7000000000000D-01  1.0552679269261D-03  1.4105590730507D+00
59  5.8000000000000D-01  3.2683794699146D-02  1.3994335628731D+00
60  5.9000000000000D-01  6.5778167328227D-02  1.3865799152919D+00
61  6.0000000000000D-01  1.0036105131902D-01  1.3720003150235D+00
62  6.1000000000000D-01  1.3644790222457D-01  1.3557016140168D+00
63  6.2000000000000D-01  1.7404596414686D-01  1.3376955817612D+00
64  6.3000000000000D-01  2.1315330857884D-01  1.3179991348422D+00
65  6.4000000000000D-01  2.5375792654305D-01  1.2966345426043D+00
66  6.5000000000000D-01  2.9583688675201D-01  1.2736296058847D+00
67  6.6000000000000D-01  3.3935557213477D-01  1.2490178059313D+00
68  6.7000000000000D-01  3.8426700654779D-01  1.2228384207909D+00
69  6.8000000000000D-01  4.3051128281975D-01  1.1951366066655D+00
70  6.9000000000000D-01  4.7801510246477D-01  1.1659634419807D+00
71  7.0000000000000D-01  5.2669143645658D-01  1.1353759321780D+00
72  7.1000000000000D-01  5.7643931538130D-01  1.1034369735497D+00
73  7.2000000000000D-01  6.2714375610270D-01  1.0702152747560D+00
74  7.3000000000000D-01  6.7867583077137D-01  1.0357852350217D+00
75  7.4000000000000D-01  7.3089288262385D-01  1.0002267783723D+00
76  7.5000000000000D-01  7.8363889154502D-01  9.6362514366259D-01
77  7.6000000000000D-01  8.3674499082856D-01  9.2607063054771D-01
78  7.7000000000000D-01  8.9003013498097D-01  8.8765830195676D-01
79  7.8000000000000D-01  9.4330191679488D-01  8.4848764404363D-01
80  7.9000000000000D-01  9.9635753026937D-01  8.0866218500678D-01
81  8.0000000000000D-01  1.0489848743193D+00  7.6828907458137D-01
82  8.1000000000000D-01  1.1009637905906D+00  7.2747862641337D-01
83  8.2000000000000D-01  1.1520674271121D+00  6.8634382591901D-01
84  8.3000000000000D-01  1.2020637179800D+00  6.4499980661119D-01
85  8.4000000000000D-01  1.2507169678122D+00  6.0356329823218D-01
86  8.5000000000000D-01  1.2977895283348D+00  5.6215205036610D-01
87  8.6000000000000D-01  1.3430435531988D+00  5.2088423551035D-01
88  8.7000000000000D-01  1.3862428159760D+00  4.7987783585948D-01
89  8.8000000000000D-01  1.4271545752752D+00  4.3925001829419D-01
90  8.9000000000000D-01  1.4655514700560D+00  3.9911650226986D-01
91  9.0000000000000D-01  1.5012134275172D+00  3.5959092545894D-01
92  9.1000000000000D-01  1.5339295654036D+00  3.2078421211992D-01
93  9.2000000000000D-01  1.5635000702263D+00  2.8280394923754D-01
94  9.3000000000000D-01  1.5897380327196D+00  2.4575377550619D-01
95  9.4000000000000D-01  1.6124712218854D+00  2.0973278820723D-01
96  9.5000000000000D-01  1.6315437791884D+00  1.7483497296242D-01
97  9.6000000000000D-01  1.6468178148771D+00  1.4114866122915D-01
98  9.7000000000000D-01  1.6581748889942D+00  1.0875602024265D-01
99  9.8000000000000D-01  1.6655173604403D+00  7.7732579897249D-02
100  9.9000000000000D-01  1.6687695884101D+00  4.8146800808143D-02
101  1.0000000000000D+00  1.6678789716643D+00  2.0059687498336D-02
102  1.0100000000000D+00  1.6628168123985D+00 -6.4755496799302D-03
103  1.0200000000000D+00  1.6535789929194D+00 -3.1413780651075D-02
104  1.0300000000000D+00  1.6401864549704D+00 -5.4718186928609D-02
105  1.0400000000000D+00  1.6226854731299D+00 -7.6360435715904D-02
106  1.0500000000000D+00  1.6011477156845D+00 -9.6320794880427D-02
107  1.0600000000000D+00  1.5756700881549D+00 -1.1458818733660D-01
108  1.0700000000000D+00  1.5463743566370D+00 -1.3116018387659D-01
109  1.0800000000000D+00  1.5134065502275D+00 -1.4604293402103D-01
110  1.0900000000000D+00  1.4769361435717D+00 -1.5925103491102D-01
111  1.1000000000000D+00  1.4371550229004D+00 -1.7080733885226D-01
112  1.1100000000000D+00  1.3942762407390D+00 -1.8074270058377D-01
113  1.1200000000000D+00  1.3485325665342D+00 -1.8909566586779D-01
114  1.1300000000000D+00  1.3001748422506D+00 -1.9591210345805D-01
115  1.1400000000000D+00  1.2494701537883D+00 -2.0124478296275D-01
116  1.1500000000000D+00  1.1966998309444D+00 -2.0515290159944D-01
117  1.1600000000000D+00  1.1421572900973D+00 -2.0770156321542D-01
118  1.1700000000000D+00  1.0861457351472D+00 -2.0896121329897D-01
119  1.1800000000000D+00  1.0289757336323D+00 -2.0900703406958D-01
120  1.1900000000000D+00  9.7096268609340D-01 -2.0791830404213D-01
121  1.2000000000000D+00  9.1242420757043D-01 -2.0577772668579D-01
122  1.2100000000000D+00  8.5367744070900D-01 -2.0267073295714D-01
123  1.2200000000000D+00  7.9503632080228D-01 -1.9868476273524D-01
124  1.2300000000000D+00  7.3680881304520D-01 -1.9390853019630D-01
125  1.2400000000000D+00  6.7929414246240D-01 -1.8843127823232D-01
126  1.2500000000000D+00  6.2278003699264D-01 -1.8234202705679D-01
127  1.2600000000000D+00  5.6754000350319D-01 -1.7572882200213D-01
128  1.2700000000000D+00  5.1383065300207D-01 -1.6867798496590D-01
129  1.2800000000000D+00  4.6188911247558D-01 -1.6127337714378D-01
130  1.2900000000000D+00  4.1193045712687D-01 -1.5359566440155D-01
131  1.3000000000000D+00  3.6414557669380D-01 -1.4572165300028D-01
132  1.3100000000000D+00  3.1869826532880D-01 -1.3772350497806D-01
133  1.3200000000000D+00  2.7572347757692D-01 -1.2966814418363D-01
134  1.3300000000000D+00  2.3532966431629D-01 -1.2161727245434D-01
135  1.3400000000000D+00  1.9760140166216D-01 -1.1362753725763D-01
136  1.3500000000000D+00  1.6260256253117D-01 -1.0575085419863D-01
137  1.3600000000000D+00  1.3037534176911D-01 -9.8034152404308D-02
138  1.3700000000000D+00  1.0094017081879D-01 -9.0519274980472D-02
139  1.3800000000000D+00  7.4296017908269D-02 -8.3242947361864D-02
140  1.3900000000000D+00  5.0420751976726D-02 -7.6236777878511D-02
141  1.4000000000000D+00  2.9271719127138D-02 -6.9527307646906D-02
142  1.4100000000000D+00  1.0786506249990D-02 -6.3136106537291D-02
143  1.4200000000000D+00 -5.1161113495727D-03 -5.7079914103833D-02
144  1.4300000000000D+00 -1.8535050284502D-02 -5.1370822894496D-02
145  1.4400000000000D+00 -2.9585634294558D-02 -4.6016502590000D-02
146  1.4500000000000D+00 -3.8398161334636D-02 -4.1020461090961D-02
147  1.4600000000000D+00 -4.5116332540906D-02 -3.6382340289769D-02
148  1.4700000000000D+00 -4.9895560899446D-02 -3.2098242455216D-02
149  1.4800000000000D+00 -5.2901175838658D-02 -2.8161083517295D-02
150  1.4900000000000D+00 -5.4306540421385D-02 -2.4560969448890D-02
151  1.5000000000000D+00 -5.4291102185726D-02 -2.1285590893513D-02
152  1.5100000000000D+00 -5.3038394460327D-02 -1.8320632203510D-02
153  1.5200000000000D+00 -5.0734010614168D-02 -1.5650189695865D-02
154  1.5300000000000D+00 -4.7563569818992D-02 -1.3257194870131D-02
155  1.5400000000000D+00 -4.3710696126761D-02 -1.1123837548912D-02
156  1.5500000000000D+00 -3.9355029921838D-02 -9.2319845489022D-03
157  1.5600000000000D+00 -3.4670293810843D-02 -7.5635887882260D-03
158  1.5700000000000D+00 -2.9822429288079D-02 -6.1010850444730D-03
159  1.5800000000000D+00 -2.4967828157070D-02 -4.8277668294330D-03
160  1.5900000000000D+00 -2.0251669164493D-02 -3.7281419383689D-03
161  1.6000000000000D+00 -1.5806386857650D-02 -2.7882604385670D-03
162  1.6100000000000D+00 -1.1750973095157D-02 -1.9961106468748D-03
163  1.6200000000000D+00 -8.1895916734298D-03 -1.3418627453256D-03
164  1.6300000000000D+00 -5.1945002615163D-03 -8.1607879795923D-04
165  1.6400000000000D+00 -2.8412110671543D-03 -4.1453502839188D-04
166  1.6500000000000D+00 -1.2475177186280D-03 -1.4129949321579D-04
167  1.6600000000000D+00 -4.0045565661326D-04  7.7412563291443D-06
168  1.6700000000000D+00 -6.4471072466801D-05  5.1247229968652D-05
169  1.6800000000000D+00  1.1017602316917D-05  2.6655239430268D-05
170  1.6900000000000D+00 -4.1664211725674D-06 -4.9190968427163D-06
171  1.7000000000000D+00 -8.6674263016359D-06 -7.6186249013119D-06
172  1.7100000000000D+00  4.1941591536159D-07  8.3777697512797D-07
173  1.7200000000000D+00  1.0738313562519D-06  1.6890505657878D-06
174  1.7300000000000D+00  1.2479351609702D-07 -4.8952053693940D-08
175  1.7400000000000D+00  3.3461033550114D-07 -1.3125572243084D-07
176  1.7500000000000D+00  0.0000000000000D+00  0.0000000000000D+00
177  1.7600000000000D+00  0.0000000000000D+00  0.0000000000000D+00
178  1.7700000000000D+00  0.0000000000000D+00  0.0000000000000D+00
179  1.7800000000000D+00  0.0000000000000D+00  0.0000000000000D+00
180  1.7900000000000D+00  0.0000000000000D+00  0.0000000000000D+00
181  1.8000000000000D+00  0.0000000000000D+00  0.0000000000000D+00
182  1.8100000000000D+00  0.0000000000000D+00  0.0000000000000D+00
183  1.8200000000000D+00  0.0000000000000D+00  0.0000000000000D+00
184  1.8300000000000D+00  0.0000000000000D+00  0.0000000000000D+00
185  1.8400000000000D+00  0.0000000000000D+00  0.0000000000000D+00
186  1.8500000000000D+00  0.0000000000000D+00  0.0000000000000D+00
187  1.8600000000000D+00  0.0000000000000D+00  0.0000000000000D+00
188  1.8700000000000D+00  0.0000000000000D+00  0.0000000000000D+00
189  1.8800000000000D+00  0.0000000000000D+00  0.0000000000000D+00
190  1.8900000000000D+00  0.0000000000000D+00  0.0000000000000D+00
191  1.9000000000000D+00  0.0000000000000D+00  0.0000000000000D+00
192  1.9100000000000D+00  0.0000000000000D+00  0.0000000000000D+00
193  1.9200000000000D+00  0.0000000000000D+00  0.0000000000000D+00
194  1.9300000000000D+00  0.0000000000000D+00  0.0000000000000D+00
195  1.9400000000000D+00  0.0000000000000D+00  0.0000000000000D+00
196  1.9500000000000D+00  0.0000000000000D+00  0.0000000000000D+00
197  1.9600000000000D+00  0.0000000000000D+00  0.0000000000000D+00
198  1.9700000000000D+00  0.0000000000000D+00  0.0000000000000D+00
199  1.9800000000000D+00  0.0000000000000D+00  0.0000000000000D+00
200  1.9900000000000D+00  0.0000000000000D+00  0.0000000000000D+00
201  2.0000000000000D+00  0.0000000000000D+00  0.0000000000000D+00
202  2.0100000000000D+00  0.0000000000000D+00  0.0000000000000D+00
203  2.0200000000000D+00  0.0000000000000D+00  0.0000000000000D+00
204  2.0300000000000D+00  0.0000000000000D+00  0.0000000000000D+00
205  2.0400000000000D+00  0.0000000000000D+00  0.0000000000000D+00
206  2.0500000000000D+00  0.0000000000000D+00  0.0000000000000D+00
207  2.0600000000000D+00  0.0000000000000D+00  0.0000000000000D+00
208  2.0700000000000D+00  0.0000000000000D+00  0.0000000000000D+00
209  2.0800000000000D+00  0.0000000000000D+00  0.0000000000000D+00
210  2.0900000000000D+00  0.0000000000000D+00  0.0000000000000D+00
211  2.1000000000000D+00  0.0000000000000D+00  0.0000000000000D+00
212  2.1100000000000D+00  0.0000000000000D+00  0.0000000000000D+00
213  2.1200000000000D+00  0.0000000000000D+00  0.0000000000000D+00
214  2.1300000000000D+00  0.0000000000000D+00  0.0000000000000D+00
215  2.1400000000000D+00  0.0000000000000D+00  0.0000000000000D+00
216  2.1500000000000D+00  0.0000000000000D+00  0.0000000000000D+00
217  2.1600000000000D+00  0.0000000000000D+00  0.0000000000000D+00
218  2.1700000000000D+00  0.0000000000000D+00  0.0000000000000D+00
219  2.1800000000000D+00  0.0000000000000D+00  0.0000000000000D+00
220  2.1900000000000D+00  0.0000000000000D+00  0.0000000000000D+00
221  2.2000000000000D+00  0.0000000000000D+00  0.0000000000000D+00
222  2.2100000000000D+00  0.0000000000000D+00  0.0000000000000D+00
223  2.2200000000000D+00  0.0000000000000D+00  0.0000000000000D+00
224  2.2300000000000D+00  0.0000000000000D+00  0.0000000000000D+00
225  2.2400000000000D+00  0.0000000000000D+00  0.0000000000000D+00
226  2.2500000000000D+00  0.0000000000000D+00  0.0000000000000D+00
227  2.2600000000000D+00  0.0000000000000D+00  0.0000000000000D+00
228  2.2700000000000D+00  0.0000000000000D+00  0.0000000000000D+00
229  2.2800000000000D+00  0.0000000000000D+00  0.0000000000000D+00
230  2.2900000000000D+00  0.0000000000000D+00  0.0000000000000D+00
231  2.3000000000000D+00  0.0000000000000D+00  0.0000000000000D+00
232  2.3100000000000D+00  0.0000000000000D+00  0.0000000000000D+00
233  2.3200000000000D+00  0.0000000000000D+00  0.0000000000000D+00
234  2.3300000000000D+00  0.0000000000000D+00  0.0000000000000D+00
235  2.3400000000000D+00  0.0000000000000D+00  0.0000000000000D+00
236  2.3500000000000D+00  0.0000000000000D+00  0.0000000000000D+00
237  2.3600000000000D+00  0.0000000000000D+00  0.0000000000000D+00
238  2.3700000000000D+00  0.0000000000000D+00  0.0000000000000D+00
239  2.3800000000000D+00  0.0000000000000D+00  0.0000000000000D+00
240  2.3900000000000D+00  0.0000000000000D+00  0.0000000000000D+00
241  2.4000000000000D+00  0.0000000000000D+00  0.0000000000000D+00
242  2.4100000000000D+00  0.0000000000000D+00  0.0000000000000D+00
243  2.4200000000000D+00  0.0000000000000D+00  0.0000000000000D+00
244  2.4300000000000D+00  0.0000000000000D+00  0.0000000000000D+00
245  2.4400000000000D+00  0.0000000000000D+00  0.0000000000000D+00
246  2.4500000000000D+00  0.0000000000000D+00  0.0000000000000D+00
247  2.4600000000000D+00  0.0000000000000D+00  0.0000000000000D+00
248  2.4700000000000D+00  0.0000000000000D+00  0.0000000000000D+00
249  2.4800000000000D+00  0.0000000000000D+00  0.0000000000000D+00
250  2.4900000000000D+00  0.0000000000000D+00  0.0000000000000D+00
251  2.5000000000000D+00  0.0000000000000D+00  0.0000000000000D+00
252  2.5100000000000D+00  0.0000000000000D+00  0.0000000000000D+00
253  2.5200000000000D+00  0.0000000000000D+00  0.0000000000000D+00
254  2.5300000000000D+00  0.0000000000000D+00  0.0000000000000D+00
255  2.5400000000000D+00  0.0000000000000D+00  0.0000000000000D+00
256  2.5500000000000D+00  0.0000000000000D+00  0.0000000000000D+00
257  2.5600000000000D+00  0.0000000000000D+00  0.0000000000000D+00
258  2.5700000000000D+00  0.0000000000000D+00  0.0000000000000D+00
259  2.5800000000000D+00  0.0000000000000D+00  0.0000000000000D+00
260  2.5900000000000D+00  0.0000000000000D+00  0.0000000000000D+00
261  2.6000000000000D+00  0.0000000000000D+00  0.0000000000000D+00
262  2.6100000000000D+00  0.0000000000000D+00  0.0000000000000D+00
263  2.6200000000000D+00  0.0000000000000D+00  0.0000000000000D+00
264  2.6300000000000D+00  0.0000000000000D+00  0.0000000000000D+00
265  2.6400000000000D+00  0.0000000000000D+00  0.0000000000000D+00
266  2.6500000000000D+00  0.0000000000000D+00  0.0000000000000D+00
267  2.6600000000000D+00  0.0000000000000D+00  0.0000000000000D+00
268  2.6700000000000D+00  0.0000000000000D+00  0.0000000000000D+00
269  2.6800000000000D+00  0.0000000000000D+00  0.0000000000000D+00
270  2.6900000000000D+00  0.0000000000000D+00  0.0000000000000D+00
271  2.7000000000000D+00  0.0000000000000D+00  0.0000000000000D+00
272  2.7100000000000D+00  0.0000000000000D+00  0.0000000000000D+00
273  2.7200000000000D+00  0.0000000000000D+00  0.0000000000000D+00
274  2.7300000000000D+00  0.0000000000000D+00  0.0000000000000D+00
275  2.7400000000000D+00  0.0000000000000D+00  0.0000000000000D+00
276  2.7500000000000D+00  0.0000000000000D+00  0.0000000000000D+00
277  2.7600000000000D+00  0.0000000000000D+00  0.0000000000000D+00
278  2.7700000000000D+00  0.0000000000000D+00  0.0000000000000D+00
279  2.7800000000000D+00  0.0000000000000D+00  0.0000000000000D+00
280  2.7900000000000D+00  0.0000000000000D+00  0.0000000000000D+00
281  2.8000000000000D+00  0.0000000000000D+00  0.0000000000000D+00
282  2.8100000000000D+00  0.0000000000000D+00  0.0000000000000D+00
283  2.8200000000000D+00  0.0000000000000D+00  0.0000000000000D+00
284  2.8300000000000D+00  0.0000000000000D+00  0.0000000000000D+00
285  2.8400000000000D+00  0.0000000000000D+00  0.0000000000000D+00
286  2.8500000000000D+00  0.0000000000000D+00  0.0000000000000D+00
287  2.8600000000000D+00  0.0000000000000D+00  0.0000000000000D+00
288  2.8700000000000D+00  0.0000000000000D+00  0.0000000000000D+00
289  2.8800000000000D+00  0.0000000000000D+00  0.0000000000000D+00
290  2.8900000000000D+00  0.0000000000000D+00  0.0000000000000D+00
291  2.9000000000000D+00  0.0000000000000D+00  0.0000000000000D+00
292  2.9100000000000D+00  0.0000000000000D+00  0.0000000000000D+00
293  2.9200000000000D+00  0.0000000000000D+00  0.0000000000000D+00
294  2.9300000000000D+00  0.0000000000000D+00  0.0000000000000D+00
295  2.9400000000000D+00  0.0000000000000D+00  0.0000000000000D+00
296  2.9500000000000D+00  0.0000000000000D+00  0.0000000000000D+00
297  2.9600000000000D+00  0.0000000000000D+00  0.0000000000000D+00
298  2.9700000000000D+00  0.0000000000000D+00  0.0000000000000D+00
299  2.9800000000000D+00  0.0000000000000D+00  0.0000000000000D+00
300  2.9900000000000D+00  0.0000000000000D+00  0.0000000000000D+00
301  3.0000000000000D+00  0.0000000000000D+00  0.0000000000000D+00
302  3.0100000000000D+00  0.0000000000000D+00  0.0000000000000D+00
303  3.0200000000000D+00  0.0000000000000D+00  0.0000000000000D+00
304  3.0300000000000D+00  0.0000000000000D+00  0.0000000000000D+00
305  3.0400000000000D+00  0.0000000000000D+00  0.0000000000000D+00
306  3.0500000000000D+00  0.0000000000000D+00  0.0000000000000D+00
307  3.0600000000000D+00  0.0000000000000D+00  0.0000000000000D+00
308  3.0700000000000D+00  0.0000000000000D+00  0.0000000000000D+00
309  3.0800000000000D+00  0.0000000000000D+00  0.0000000000000D+00
310  3.0900000000000D+00  0.0000000000000D+00  0.0000000000000D+00
311  3.1000000000000D+00  0.0000000000000D+00  0.0000000000000D+00
312  3.1100000000000D+00  0.0000000000000D+00  0.0000000000000D+00
313  3.1200000000000D+00  0.0000000000000D+00  0.0000000000000D+00
314  3.1300000000000D+00  0.0000000000000D+00  0.0000000000000D+00
315  3.1400000000000D+00  0.0000000000000D+00  0.0000000000000D+00
316  3.1500000000000D+00  0.0000000000000D+00  0.0000000000000D+00
317  3.1600000000000D+00  0.0000000000000D+00  0.0000000000000D+00
318  3.1700000000000D+00  0.0000000000000D+00  0.0000000000000D+00
319  3.1800000000000D+00  0.0000000000000D+00  0.0000000000000D+00
320  3.1900000000000D+00  0.0000000000000D+00  0.0000000000000D+00
321  3.2000000000000D+00  0.0000000000000D+00  0.0000000000000D+00
322  3.2100000000000D+00  0.0000000000000D+00  0.0000000000000D+00
323  3.2200000000000D+00  0.0000000000000D+00  0.0000000000000D+00
324  3.2300000000000D+00  0.0000000000000D+00  0.0000000000000D+00
325  3.2400000000000D+00  0.0000000000000D+00  0.0000000000000D+00
326  3.2500000000000D+00  0.0000000000000D+00  0.0000000000000D+00
327  3.2600000000000D+00  0.0000000000000D+00  0.0000000000000D+00
328  3.2700000000000D+00  0.0000000000000D+00  0.0000000000000D+00
329  3.2800000000000D+00  0.0000000000000D+00  0.0000000000000D+00
330  3.2900000000000D+00  0.0000000000000D+00  0.0000000000000D+00
331  3.3000000000000D+00  0.0000000000000D+00  0.0000000000000D+00
332  3.3100000000000D+00  0.0000000000000D+00  0.0000000000000D+00
333  3.3200000000000D+00  0.0000000000000D+00  0.0000000000000D+00
334  3.3300000000000D+00  0.0000000000000D+00  0.0000000000000D+00
335  3.3400000000000D+00  0.0000000000000D+00  0.0000000000000D+00
336  3.3500000000000D+00  0.0000000000000D+00  0.0000000000000D+00
337  3.3600000000000D+00  0.0000000000000D+00  0.0000000000000D+00
338  3.3700000000000D+00  0.0000000000000D+00  0.0000000000000D+00
339  3.3800000000000D+00  0.0000000000000D+00  0.0000000000000D+00
340  3.3900000000000D+00  0.0000000000000D+00  0.0000000000000D+00
341  3.4000000000000D+00  0.0000000000000D+00  0.0000000000000D+00
342  3.4100000000000D+00  0.0000000000000D+00  0.0000000000000D+00
343  3.4200000000000D+00  0.0000000000000D+00  0.0000000000000D+00
344  3.4300000000000D+00  0.0000000000000D+00  0.0000000000000D+00
345  3.4400000000000D+00  0.0000000000000D+00  0.0000000000000D+00
346  3.4500000000000D+00  0.0000000000000D+00  0.0000000000000D+00
347  3.4600000000000D+00  0.0000000000000D+00  0.0000000000000D+00
348  3.4700000000000D+00  0.0000000000000D+00  0.0000000000000D+00
349  3.4800000000000D+00  0.0000000000000D+00  0.0000000000000D+00
350  3.4900000000000D+00  0.0000000000000D+00  0.0000000000000D+00
351  3.5000000000000D+00  0.0000000000000D+00  0.0000000000000D+00
352  3.5100000000000D+00  0.0000000000000D+00  0.0000000000000D+00
353  3.5200000000000D+00  0.0000000000000D+00  0.0000000000000D+00
354  3.5300000000000D+00  0.0000000000000D+00  0.0000000000000D+00
355  3.5400000000000D+00  0.0000000000000D+00  0.0000000000000D+00
356  3.5500000000000D+00  0.0000000000000D+00  0.0000000000000D+00
357  3.5600000000000D+00  0.0000000000000D+00  0.0000000000000D+00
358  3.5700000000000D+00  0.0000000000000D+00  0.0000000000000D+00
359  3.5800000000000D+00  0.0000000000000D+00  0.0000000000000D+00
360  3.5900000000000D+00  0.0000000000000D+00  0.0000000000000D+00
361  3.6000000000000D+00  0.0000000000000D+00  0.0000000000000D+00
362  3.6100000000000D+00  0.0000000000000D+00  0.0000000000000D+00
363  3.6200000000000D+00  0.0000000000000D+00  0.0000000000000D+00
364  3.6300000000000D+00  0.0000000000000D+00  0.0000000000000D+00
365  3.6400000000000D+00  0.0000000000000D+00  0.0000000000000D+00
366  3.6500000000000D+00  0.0000000000000D+00  0.0000000000000D+00
367  3.6600000000000D+00  0.0000000000000D+00  0.0000000000000D+00
368  3.6700000000000D+00  0.0000000000000D+00  0.0000000000000D+00
369  3.6800000000000D+00  0.0000000000000D+00  0.0000000000000D+00
370  3.6900000000000D+00  0.0000000000000D+00  0.0000000000000D+00
371  3.7000000000000D+00  0.0000000000000D+00  0.0000000000000D+00
372  3.7100000000000D+00  0.0000000000000D+00  0.0000000000000D+00
373  3.7200000000000D+00  0.0000000000000D+00  0.0000000000000D+00
374  3.7300000000000D+00  0.0000000000000D+00  0.0000000000000D+00
375  3.7400000000000D+00  0.0000000000000D+00  0.0000000000000D+00
376  3.7500000000000D+00  0.0000000000000D+00  0.0000000000000D+00
377  3.7600000000000D+00  0.0000000000000D+00  0.0000000000000D+00
378  3.7700000000000D+00  0.0000000000000D+00  0.0000000000000D+00
379  3.7800000000000D+00  0.0000000000000D+00  0.0000000000000D+00
380  3.7900000000000D+00  0.0000000000000D+00  0.0000000000000D+00
381  3.8000000000000D+00  0.0000000000000D+00  0.0000000000000D+00
382  3.8100000000000D+00  0.0000000000000D+00  0.0000000000000D+00
383  3.8200000000000D+00  0.0000000000000D+00  0.0000000000000D+00
384  3.8300000000000D+00  0.0000000000000D+00  0.0000000000000D+00
385  3.8400000000000D+00  0.0000000000000D+00  0.0000000000000D+00
386  3.8500000000000D+00  0.0000000000000D+00  0.0000000000000D+00
387  3.8600000000000D+00  0.0000000000000D+00  0.0000000000000D+00
388  3.8700000000000D+00  0.0000000000000D+00  0.0000000000000D+00
389  3.8800000000000D+00  0.0000000000000D+00  0.0000000000000D+00
390  3.8900000000000D+00  0.0000000000000D+00  0.0000000000000D+00
391  3.9000000000000D+00  0.0000000000000D+00  0.0000000000000D+00
392  3.9100000000000D+00  0.0000000000000D+00  0.0000000000000D+00
393  3.9200000000000D+00  0.0000000000000D+00  0.0000000000000D+00
394  3.9300000000000D+00  0.0000000000000D+00  0.0000000000000D+00
395  3.9400000000000D+00  0.0000000000000D+00  0.0000000000000D+00
396  3.9500000000000D+00  0.0000000000000D+00  0.0000000000000D+00
397  3.9600000000000D+00  0.0000000000000D+00  0.0000000000000D+00
398  3.9700000000000D+00  0.0000000000000D+00  0.0000000000000D+00
399  3.9800000000000D+00  0.0000000000000D+00  0.0000000000000D+00
400  3.9900000000000D+00  0.0000000000000D+00  0.0000000000000D+00
401  4.0000000000000D+00  0.0000000000000D+00  0.0000000000000D+00
402  4.0100000000000D+00  0.0000000000000D+00  0.0000000000000D+00
403  4.0200000000000D+00  0.0000000000000D+00  0.0000000000000D+00
404  4.0300000000000D+00  0.0000000000000D+00  0.0000000000000D+00
405  4.0400000000000D+00  0.0000000000000D+00  0.0000000000000D+00
406  4.0500000000000D+00  0.0000000000000D+00  0.0000000000000D+00
407  4.0600000000000D+00  0.0000000000000D+00  0.0000000000000D+00
408  4.0700000000000D+00  0.0000000000000D+00  0.0000000000000D+00
409  4.0800000000000D+00  0.0000000000000D+00  0.0000000000000D+00
410  4.0900000000000D+00  0.0000000000000D+00  0.0000000000000D+00
411  4.1000000000000D+00  0.0000000000000D+00  0.0000000000000D+00
412  4.1100000000000D+00  0.0000000000000D+00  0.0000000000000D+00
413  4.1200000000000D+00  0.0000000000000D+00  0.0000000000000D+00
414  4.1300000000000D+00  0.0000000000000D+00  0.0000000000000D+00
415  4.1400000000000D+00  0.0000000000000D+00  0.0000000000000D+00
416  4.1500000000000D+00  0.0000000000000D+00  0.0000000000000D+00
417  4.1600000000000D+00  0.0000000000000D+00  0.0000000000000D+00
418  4.1700000000000D+00  0.0000000000000D+00  0.0000000000000D+00
419  4.1800000000000D+00  0.0000000000000D+00  0.0000000000000D+00
420  4.1900000000000D+00  0.0000000000000D+00  0.0000000000000D+00
421  4.2000000000000D+00  0.0000000000000D+00  0.0000000000000D+00
422  4.2100000000000D+00  0.0000000000000D+00  0.0000000000000D+00
423  4.2200000000000D+00  0.0000000000000D+00  0.0000000000000D+00
424  4.2300000000000D+00  0.0000000000000D+00  0.0000000000000D+00
425  4.2400000000000D+00  0.0000000000000D+00  0.0000000000000D+00
426  4.2500000000000D+00  0.0000000000000D+00  0.0000000000000D+00
427  4.2600000000000D+00  0.0000000000000D+00  0.0000000000000D+00
428  4.2700000000000D+00  0.0000000000000D+00  0.0000000000000D+00
429  4.2800000000000D+00  0.0000000000000D+00  0.0000000000000D+00
430  4.2900000000000D+00  0.0000000000000D+00  0.0000000000000D+00
431  4.3000000000000D+00  0.0000000000000D+00  0.0000000000000D+00
432  4.3100000000000D+00  0.0000000000000D+00  0.0000000000000D+00
433  4.3200000000000D+00  0.0000000000000D+00  0.0000000000000D+00
434  4.3300000000000D+00  0.0000000000000D+00  0.0000000000000D+00
435  4.3400000000000D+00  0.0000000000000D+00  0.0000000000000D+00
436  4.3500000000000D+00  0.0000000000000D+00  0.0000000000000D+00
437  4.3600000000000D+00  0.0000000000000D+00  0.0000000000000D+00
438  4.3700000000000D+00  0.0000000000000D+00  0.0000000000000D+00
439  4.3800000000000D+00  0.0000000000000D+00  0.0000000000000D+00
440  4.3900000000000D+00  0.0000000000000D+00  0.0000000000000D+00
441  4.4000000000000D+00  0.0000000000000D+00  0.0000000000000D+00
442  4.4100000000000D+00  0.0000000000000D+00  0.0000000000000D+00
443  4.4200000000000D+00  0.0000000000000D+00  0.0000000000000D+00