Ta    ONCVPSP-3.3.0  r_core=   1.71294   1.71294   1.71294   2.25368
73.0000     13.0000      180430    zatom,zion,pspd
8 -116133   3     4   600     0    pspcod,pspxc,lmax,lloc,mmax,r2well
5.99000000  5.00000000  0.00000000    rchrg fchrg qchrg
2     4     4     4    nproj
3     1           extension_switch
4     4     4    nprojso
0                         1.4383543025957D+00  1.1429806567312D+01
1  0.0000000000000D+00  5.7873372760753D-10 -2.4411073162867D-10
2  1.0000000000000D-02 -2.0096337657422D-02  6.4308765364449D-02
3  2.0000000000000D-02 -4.0018781252009D-02  1.2847270290416D-01
4  3.0000000000000D-02 -5.9594849978130D-02  1.9234767854440D-01
5  4.0000000000000D-02 -7.8654875360158D-02  2.5579093965228D-01
6  5.0000000000000D-02 -9.7033372104885D-02  3.1866179067485D-01
7  6.0000000000000D-02 -1.1457036699296D-01  3.8082225085250D-01
8  7.0000000000000D-02 -1.3111267250797D-01  4.4213768832197D-01
9  8.0000000000000D-02 -1.4651509248063D-01  5.0247742516754D-01
10  9.0000000000000D-02 -1.6064154773768D-01  5.6171530827903D-01
11  1.0000000000000D-01 -1.7336611058363D-01  6.1973024122922D-01
12  1.1000000000000D-01 -1.8457393789989D-01  6.7640667278612D-01
13  1.2000000000000D-01 -1.9416209370983D-01  7.3163503812446D-01
14  1.3000000000000D-01 -2.0204025321967D-01  7.8531214928976D-01
15  1.4000000000000D-01 -2.0813128159131D-01  8.3734153199371D-01
16  1.5000000000000D-01 -2.1237168202211D-01  8.8763370637496D-01
17  1.6000000000000D-01 -2.1471190908381D-01  9.3610640993923D-01
18  1.7000000000000D-01 -2.1511654469489D-01  9.8268476149132D-01
19  1.8000000000000D-01 -2.1356433555255D-01  1.0273013654821D+00
20  1.9000000000000D-01 -2.1004809231675D-01  1.0698963568105D+00
21  2.0000000000000D-01 -2.0457445230503D-01  1.1104173867357D+00
22  2.1000000000000D-01 -1.9716350890706D-01  1.1488195511658D+00
23  2.2000000000000D-01 -1.8784831234671D-01  1.1850652631816D+00
24  2.3000000000000D-01 -1.7667424779314D-01  1.2191240722324D+00
25  2.4000000000000D-01 -1.6369829813428D-01  1.2509724329893D+00
26  2.5000000000000D-01 -1.4898819996475D-01  1.2805934273600D+00
27  2.6000000000000D-01 -1.3262150249000D-01  1.3079764436474D+00
28  2.7000000000000D-01 -1.1468454009857D-01  1.3331168172748D+00
29  2.8000000000000D-01 -9.5271330291899D-02  1.3560154378888D+00
30  2.9000000000000D-01 -7.4482409477586D-02  1.3766783279884D+00
31  3.0000000000000D-01 -5.2423619815527D-02  1.3951161985133D+00
32  3.1000000000000D-01 -2.9204860852108D-02  1.4113439870460D+00
33  3.2000000000000D-01 -4.9388200760898D-03  1.4253803844445D+00
34  3.3000000000000D-01  2.0260303221411D-02  1.4372473558198D+00
35  3.4000000000000D-01  4.6278066306698D-02  1.4469696618057D+00
36  3.5000000000000D-01  7.3001029169676D-02  1.4545743860341D+00
37  3.6000000000000D-01  1.0031796430147D-01  1.4600904746310D+00
38  3.7000000000000D-01  1.2812101626369D-01  1.4635482933823D+00
39  3.8000000000000D-01  1.5630679775582D-01  1.4649792079897D+00
40  3.9000000000000D-01  1.8477740956214D-01  1.4644151925500D+00
41  4.0000000000000D-01  2.1344137257601D-01  1.4618884710355D+00
42  4.1000000000000D-01  2.4221446104943D-01  1.4574311961521D+00
43  4.2000000000000D-01  2.7102042729204D-01  1.4510751694929D+00
44  4.3000000000000D-01  2.9979160923267D-01  1.4428516063986D+00
45  4.4000000000000D-01  3.2846941354970D-01  1.4327909483902D+00
46  4.5000000000000D-01  3.5700466845855D-01  1.4209227254559D+00
47  4.6000000000000D-01  3.8535784170264D-01  1.4072754698582D+00
48  4.7000000000000D-01  4.1349912081236D-01  1.3918766824883D+00
49  4.8000000000000D-01  4.4140835426046D-01  1.3747528521419D+00
50  4.9000000000000D-01  4.6907485373426D-01  1.3559295274181D+00
51  5.0000000000000D-01  4.9649705934877D-01  1.3354314402798D+00
52  5.1000000000000D-01  5.2368207122345D-01  1.3132826796426D+00
53  5.2000000000000D-01  5.5064505242074D-01  1.2895069127093D+00
54  5.3000000000000D-01  5.7740850978090D-01  1.2641276511274D+00
55  5.4000000000000D-01  6.0400146066691D-01  1.2371685584418D+00
56  5.5000000000000D-01  6.3045849503841D-01  1.2086537947348D+00
57  5.6000000000000D-01  6.5681874359093D-01  1.1786083938095D+00
58  5.7000000000000D-01  6.8312476390895D-01  1.1470586677837D+00
59  5.8000000000000D-01  7.0942135767426D-01  1.1140326335193D+00
60  5.9000000000000D-01  7.3575433293331D-01  1.0795604549344D+00
61  6.0000000000000D-01  7.6216922624536D-01  1.0436748949251D+00
62  6.1000000000000D-01  7.8871000019654D-01  1.0064117703718D+00
63  6.2000000000000D-01  8.1541773226626D-01  9.6781040352556D-01
64  6.3000000000000D-01  8.4232931136170D-01  9.2791406296130D-01
65  6.4000000000000D-01  8.6947615849054D-01  8.8677038725287D-01
66  6.5000000000000D-01  8.9688298801489D-01  8.4443178457251D-01
67  6.6000000000000D-01  9.2456662572220D-01  8.0095580153851D-01
68  6.7000000000000D-01  9.5253489955707D-01  7.5640545483817D-01
69  6.8000000000000D-01  9.8078561828652D-01  7.1084951943115D-01
70  6.9000000000000D-01  1.0093056526272D+00  6.6436276748987D-01
71  7.0000000000000D-01  1.0380701324402D+00  6.1702615266162D-01
72  7.1000000000000D-01  1.0670417725208D+00  5.6892693472909D-01
73  7.2000000000000D-01  1.0961703382727D+00  5.2015874030681D-01
74  7.3000000000000D-01  1.1253922611853D+00  4.7082155582615D-01
75  7.4000000000000D-01  1.1546304125151D+00  4.2102164973692D-01
76  7.5000000000000D-01  1.1837940419592D+00  3.7087142157093D-01
77  7.6000000000000D-01  1.2127788863809D+00  3.2048917627305D-01
78  7.7000000000000D-01  1.2414674518486D+00  2.6999882299794D-01
79  7.8000000000000D-01  1.2697294703758D+00  2.1952949838786D-01
80  7.9000000000000D-01  1.2974225308408D+00  1.6921511518181D-01
81  8.0000000000000D-01  1.3243928816262D+00  1.1919383784621D-01
82  8.1000000000000D-01  1.3504764005750D+00  6.9607487759647D-02
83  8.2000000000000D-01  1.3754997259326D+00  2.0600881314665D-02
84  8.3000000000000D-01  1.3992815400562D+00 -2.7678894889565D-02
85  8.4000000000000D-01  1.4216339958406D+00 -7.5083266805984D-02
86  8.5000000000000D-01  1.4423642740543D+00 -1.2146300794531D-01
87  8.6000000000000D-01  1.4612762581251D+00 -1.6666912022326D-01
88  8.7000000000000D-01  1.4781723113746D+00 -2.1055375359613D-01
89  8.8000000000000D-01  1.4928551402959D+00 -2.5297115684537D-01
90  8.9000000000000D-01  1.5051297262177D+00 -2.9377865135387D-01
91  9.0000000000000D-01  1.5148053066120D+00 -3.3283761927469D-01
92  9.1000000000000D-01  1.5216973863978D+00 -3.7001449713047D-01
93  9.2000000000000D-01  1.5256297588855D+00 -4.0518176560726D-01
94  9.3000000000000D-01  1.5264365154970D+00 -4.3821892612144D-01
95  9.4000000000000D-01  1.5239640231032D+00 -4.6901345464680D-01
96  9.5000000000000D-01  1.5180728477435D+00 -4.9746172329440D-01
97  9.6000000000000D-01  1.5086396036366D+00 -5.2346988024086D-01
98  9.7000000000000D-01  1.4955587067623D+00 -5.4695467880180D-01
99  9.8000000000000D-01  1.4787440128851D+00 -5.6784424674632D-01
100  9.9000000000000D-01  1.4581303206998D+00 -5.8607878734274D-01
101  1.0000000000000D+00  1.4336747218023D+00 -6.0161120411227D-01
102  1.0100000000000D+00  1.4053577804528D+00 -6.1440764186036D-01
103  1.0200000000000D+00  1.3731845274553D+00 -6.2444793718700D-01
104  1.0300000000000D+00  1.3371852541623D+00 -6.3172597245164D-01
105  1.0400000000000D+00  1.2974160943634D+00 -6.3624992797210D-01
106  1.0500000000000D+00  1.2539593837488D+00 -6.3804242811513D-01
107  1.0600000000000D+00  1.2069237887119D+00 -6.3714057787895D-01
108  1.0700000000000D+00  1.1564441985141D+00 -6.3359588758774D-01
109  1.0800000000000D+00  1.1026813768769D+00 -6.2747408424017D-01
110  1.0900000000000D+00  1.0458213717494D+00 -6.1885480925934D-01
111  1.1000000000000D+00  9.8607468413430D-01 -6.0783120334919D-01
112  1.1100000000000D+00  9.2367519947229D-01 -5.9450938033285D-01
113  1.1200000000000D+00  8.5887888728870D-01 -5.7900779283327D-01
114  1.1300000000000D+00  7.9196227732728D-01 -5.6145649377943D-01
115  1.1400000000000D+00  7.2322072279115D-01 -5.4199629878716D-01
116  1.1500000000000D+00  6.5296646354292D-01 -5.2077785545396D-01
117  1.1600000000000D+00  5.8152650411510D-01 -4.9796062649298D-01
118  1.1700000000000D+00  5.0924032355797D-01 -4.7371179459470D-01
119  1.1800000000000D+00  4.3645743613263D-01 -4.4820509777788D-01
120  1.1900000000000D+00  3.6353482353871D-01 -4.2161960473107D-01
121  1.2000000000000D+00  2.9083426050753D-01 -3.9413844014797D-01
122  1.2100000000000D+00  2.1871955758227D-01 -3.6594747093156D-01
123  1.2200000000000D+00  1.4755374559938D-01 -3.3723396444044D-01
124  1.2300000000000D+00  7.7696227196542D-02 -3.0818523030204D-01
125  1.2400000000000D+00  9.4999215424386D-03 -2.7898725769295D-01
126  1.2500000000000D+00 -5.6691571228165D-02 -2.4982336009928D-01
127  1.2600000000000D+00 -1.2054675955017D-01 -2.2087283949050D-01
128  1.2700000000000D+00 -1.8174897724019D-01 -1.9230968199637D-01
129  1.2800000000000D+00 -2.3999900183039D-01 -1.6430129673861D-01
130  1.2900000000000D+00 -2.9501754944599D-01 -1.3700730911882D-01
131  1.3000000000000D+00 -3.4654762115985D-01 -1.1057841989584D-01
132  1.3100000000000D+00 -3.9435667859287D-01 -8.5155340103760D-02
133  1.3200000000000D+00 -4.3823862705139D-01 -6.0867811630538D-02
134  1.3300000000000D+00 -4.7801558522371D-01 -3.7833722941149D-02
135  1.3400000000000D+00 -5.1353942523465D-01 -1.6158327289403D-02
136  1.3500000000000D+00 -5.4469306573310D-01  4.0664287333528D-03
137  1.3600000000000D+00 -5.7139150411077D-01  2.2762460001020D-02
138  1.3700000000000D+00 -5.9358257926897D-01  3.9865977067600D-02
139  1.3800000000000D+00 -6.1124745219422D-01  5.5327794001521D-02
140  1.3900000000000D+00 -6.2440080187764D-01  6.9113508633200D-02
141  1.4000000000000D+00 -6.3309073275105D-01  8.1203553397686D-02
142  1.4100000000000D+00 -6.3739839040589D-01  9.1593115223643D-02
143  1.4200000000000D+00 -6.3743729351381D-01  1.0029192788541D-01
144  1.4300000000000D+00 -6.3335238124047D-01  1.0732393639351D-01
145  1.4400000000000D+00 -6.2531878858192D-01  1.1272683884926D-01
146  1.4500000000000D+00 -6.1354035965427D-01  1.1655151011964D-01
147  1.4600000000000D+00 -5.9824790926831D-01  1.1886131182354D-01
148  1.4700000000000D+00 -5.7969725540105D-01  1.1973129858564D-01
149  1.4800000000000D+00 -5.5816703269306D-01  1.1924732495811D-01
150  1.4900000000000D+00 -5.3395631555759D-01  1.1750506562509D-01
151  1.5000000000000D+00 -5.0738206795107D-01  1.1460895637140D-01
152  1.5100000000000D+00 -4.7877644711530D-01  1.1067106786167D-01
153  1.5200000000000D+00 -4.4848398725042D-01  1.0580992368305D-01
154  1.5300000000000D+00 -4.1685868883866D-01  1.0014927398476D-01
155  1.5400000000000D+00 -3.8426104500442D-01  9.3816838598815D-02
156  1.5500000000000D+00 -3.5105503123687D-01  8.6943031236481D-02
157  1.5600000000000D+00 -3.1760509587099D-01  7.9659681142827D-02
158  1.5700000000000D+00 -2.8427315423566D-01  7.2098754370034D-02
159  1.5800000000000D+00 -2.5141570122736D-01  6.4391122730038D-02
160  1.5900000000000D+00 -2.1938082679595D-01  5.6665292273853D-02
161  1.6000000000000D+00 -1.8850535927725D-01  4.9046187132382D-02
162  1.6100000000000D+00 -1.5911340731319D-01  4.1654503876298D-02
163  1.6200000000000D+00 -1.3151246610381D-01  3.4605076092440D-02
164  1.6300000000000D+00 -1.0598789732600D-01  2.8004588789191D-02
165  1.6400000000000D+00 -8.2798360451428D-02  2.1949652512042D-02
166  1.6500000000000D+00 -6.2170372123697D-02  1.6524510830614D-02
167  1.6600000000000D+00 -4.4308558442437D-02  1.1803382858944D-02
168  1.6700000000000D+00 -2.9338862439597D-02  7.8351447131667D-03
169  1.6800000000000D+00 -1.7320533762469D-02  4.6456725512793D-03
170  1.6900000000000D+00 -8.5350798142032D-03  2.3173874314699D-03
171  1.7000000000000D+00 -3.1790150845373D-03  9.0651909939212D-04
172  1.7100000000000D+00 -6.4520785059665D-04  2.3785985448636D-04
173  1.7200000000000D+00  1.2360638107043D-04  1.1661756682076D-05
174  1.7300000000000D+00  7.3473701687475D-05 -9.4853391970462D-06
175  1.7400000000000D+00 -6.2627511329445D-05  1.0014745921284D-05
176  1.7500000000000D+00 -3.8971528796055D-05  6.8177596205944D-06
177  1.7600000000000D+00  9.1053476515321D-06 -1.1225134235491D-06
178  1.7700000000000D+00  7.9675393961081D-06 -1.0861021014120D-06
179  1.7800000000000D+00  5.7163354593447D-07 -2.7784756838034D-07
180  1.7900000000000D+00  6.5538616648558D-07 -3.1855627438808D-07
181  1.8000000000000D+00  0.0000000000000D+00  0.0000000000000D+00
182  1.8100000000000D+00  0.0000000000000D+00  0.0000000000000D+00
183  1.8200000000000D+00  0.0000000000000D+00  0.0000000000000D+00
184  1.8300000000000D+00  0.0000000000000D+00  0.0000000000000D+00
185  1.8400000000000D+00  0.0000000000000D+00  0.0000000000000D+00
186  1.8500000000000D+00  0.0000000000000D+00  0.0000000000000D+00
187  1.8600000000000D+00  0.0000000000000D+00  0.0000000000000D+00
188  1.8700000000000D+00  0.0000000000000D+00  0.0000000000000D+00
189  1.8800000000000D+00  0.0000000000000D+00  0.0000000000000D+00
190  1.8900000000000D+00  0.0000000000000D+00  0.0000000000000D+00
191  1.9000000000000D+00  0.0000000000000D+00  0.0000000000000D+00
192  1.9100000000000D+00  0.0000000000000D+00  0.0000000000000D+00
193  1.9200000000000D+00  0.0000000000000D+00  0.0000000000000D+00
194  1.9300000000000D+00  0.0000000000000D+00  0.0000000000000D+00
195  1.9400000000000D+00  0.0000000000000D+00  0.0000000000000D+00
196  1.9500000000000D+00  0.0000000000000D+00  0.0000000000000D+00
197  1.9600000000000D+00  0.0000000000000D+00  0.0000000000000D+00
198  1.9700000000000D+00  0.0000000000000D+00  0.0000000000000D+00
199  1.9800000000000D+00  0.0000000000000D+00  0.0000000000000D+00
200  1.9900000000000D+00  0.0000000000000D+00  0.0000000000000D+00
201  2.0000000000000D+00  0.0000000000000D+00  0.0000000000000D+00
202  2.0100000000000D+00  0.0000000000000D+00  0.0000000000000D+00
203  2.0200000000000D+00  0.0000000000000D+00  0.0000000000000D+00
204  2.0300000000000D+00  0.0000000000000D+00  0.0000000000000D+00
205  2.0400000000000D+00  0.0000000000000D+00  0.0000000000000D+00
206  2.0500000000000D+00  0.0000000000000D+00  0.0000000000000D+00
207  2.0600000000000D+00  0.0000000000000D+00  0.0000000000000D+00
208  2.0700000000000D+00  0.0000000000000D+00  0.0000000000000D+00
209  2.0800000000000D+00  0.0000000000000D+00  0.0000000000000D+00
210  2.0900000000000D+00  0.0000000000000D+00  0.0000000000000D+00
211  2.1000000000000D+00  0.0000000000000D+00  0.0000000000000D+00
212  2.1100000000000D+00  0.0000000000000D+00  0.0000000000000D+00
213  2.1200000000000D+00  0.0000000000000D+00  0.0000000000000D+00
214  2.1300000000000D+00  0.0000000000000D+00  0.0000000000000D+00
215  2.1400000000000D+00  0.0000000000000D+00  0.0000000000000D+00
216  2.1500000000000D+00  0.0000000000000D+00  0.0000000000000D+00
217  2.1600000000000D+00  0.0000000000000D+00  0.0000000000000D+00
218  2.1700000000000D+00  0.0000000000000D+00  0.0000000000000D+00
219  2.1800000000000D+00  0.0000000000000D+00  0.0000000000000D+00
220  2.1900000000000D+00  0.0000000000000D+00  0.0000000000000D+00
221  2.2000000000000D+00  0.0000000000000D+00  0.0000000000000D+00
222  2.2100000000000D+00  0.0000000000000D+00  0.0000000000000D+00
223  2.2200000000000D+00  0.0000000000000D+00  0.0000000000000D+00
224  2.2300000000000D+00  0.0000000000000D+00  0.0000000000000D+00
225  2.2400000000000D+00  0.0000000000000D+00  0.0000000000000D+00
226  2.2500000000000D+00  0.0000000000000D+00  0.0000000000000D+00
227  2.2600000000000D+00  0.0000000000000D+00  0.0000000000000D+00
228  2.2700000000000D+00  0.0000000000000D+00  0.0000000000000D+00
229  2.2800000000000D+00  0.0000000000000D+00  0.0000000000000D+00
230  2.2900000000000D+00  0.0000000000000D+00  0.0000000000000D+00
231  2.3000000000000D+00  0.0000000000000D+00  0.0000000000000D+00
232  2.3100000000000D+00  0.0000000000000D+00  0.0000000000000D+00
233  2.3200000000000D+00  0.0000000000000D+00  0.0000000000000D+00
234  2.3300000000000D+00  0.0000000000000D+00  0.0000000000000D+00
235  2.3400000000000D+00  0.0000000000000D+00  0.0000000000000D+00
236  2.3500000000000D+00  0.0000000000000D+00  0.0000000000000D+00
237  2.3600000000000D+00  0.0000000000000D+00  0.0000000000000D+00
238  2.3700000000000D+00  0.0000000000000D+00  0.0000000000000D+00
239  2.3800000000000D+00  0.0000000000000D+00  0.0000000000000D+00
240  2.3900000000000D+00  0.0000000000000D+00  0.0000000000000D+00
241  2.4000000000000D+00  0.0000000000000D+00  0.0000000000000D+00
242  2.4100000000000D+00  0.0000000000000D+00  0.0000000000000D+00
243  2.4200000000000D+00  0.0000000000000D+00  0.0000000000000D+00
244  2.4300000000000D+00  0.0000000000000D+00  0.0000000000000D+00
245  2.4400000000000D+00  0.0000000000000D+00  0.0000000000000D+00
246  2.4500000000000D+00  0.0000000000000D+00  0.0000000000000D+00
247  2.4600000000000D+00  0.0000000000000D+00  0.0000000000000D+00
248  2.4700000000000D+00  0.0000000000000D+00  0.0000000000000D+00
249  2.4800000000000D+00  0.0000000000000D+00  0.0000000000000D+00
250  2.4900000000000D+00  0.0000000000000D+00  0.0000000000000D+00
251  2.5000000000000D+00  0.0000000000000D+00  0.0000000000000D+00
252  2.5100000000000D+00  0.0000000000000D+00  0.0000000000000D+00
253  2.5200000000000D+00  0.0000000000000D+00  0.0000000000000D+00
254  2.5300000000000D+00  0.0000000000000D+00  0.0000000000000D+00
255  2.5400000000000D+00  0.0000000000000D+00  0.0000000000000D+00
256  2.5500000000000D+00  0.0000000000000D+00  0.0000000000000D+00
257  2.5600000000000D+00  0.0000000000000D+00  0.0000000000000D+00
258  2.5700000000000D+00  0.0000000000000D+00  0.0000000000000D+00
259  2.5800000000000D+00  0.0000000000000D+00  0.0000000000000D+00
260  2.5900000000000D+00  0.0000000000000D+00  0.0000000000000D+00
261  2.6000000000000D+00  0.0000000000000D+00  0.0000000000000D+00
262  2.6100000000000D+00  0.0000000000000D+00  0.0000000000000D+00
263  2.6200000000000D+00  0.0000000000000D+00  0.0000000000000D+00
264  2.6300000000000D+00  0.0000000000000D+00  0.0000000000000D+00
265  2.6400000000000D+00  0.0000000000000D+00  0.0000000000000D+00
266  2.6500000000000D+00  0.0000000000000D+00  0.0000000000000D+00
267  2.6600000000000D+00  0.0000000000000D+00  0.0000000000000D+00
268  2.6700000000000D+00  0.0000000000000D+00  0.0000000000000D+00
269  2.6800000000000D+00  0.0000000000000D+00  0.0000000000000D+00
270  2.6900000000000D+00  0.0000000000000D+00  0.0000000000000D+00
271  2.7000000000000D+00  0.0000000000000D+00  0.0000000000000D+00
272  2.7100000000000D+00  0.0000000000000D+00  0.0000000000000D+00
273  2.7200000000000D+00  0.0000000000000D+00  0.0000000000000D+00
274  2.7300000000000D+00  0.0000000000000D+00  0.0000000000000D+00
275  2.7400000000000D+00  0.0000000000000D+00  0.0000000000000D+00
276  2.7500000000000D+00  0.0000000000000D+00  0.0000000000000D+00
277  2.7600000000000D+00  0.0000000000000D+00  0.0000000000000D+00
278  2.7700000000000D+00  0.0000000000000D+00  0.0000000000000D+00
279  2.7800000000000D+00  0.0000000000000D+00  0.0000000000000D+00
280  2.7900000000000D+00  0.0000000000000D+00  0.0000000000000D+00
281  2.8000000000000D+00  0.0000000000000D+00  0.0000000000000D+00
282  2.8100000000000D+00  0.0000000000000D+00  0.0000000000000D+00
283  2.8200000000000D+00  0.0000000000000D+00  0.0000000000000D+00
284  2.8300000000000D+00  0.0000000000000D+00  0.0000000000000D+00
285  2.8400000000000D+00  0.0000000000000D+00  0.0000000000000D+00
286  2.8500000000000D+00  0.0000000000000D+00  0.0000000000000D+00
287  2.8600000000000D+00  0.0000000000000D+00  0.0000000000000D+00
288  2.8700000000000D+00  0.0000000000000D+00  0.0000000000000D+00
289  2.8800000000000D+00  0.0000000000000D+00  0.0000000000000D+00
290  2.8900000000000D+00  0.0000000000000D+00  0.0000000000000D+00
291  2.9000000000000D+00  0.0000000000000D+00  0.0000000000000D+00
292  2.9100000000000D+00  0.0000000000000D+00  0.0000000000000D+00
293  2.9200000000000D+00  0.0000000000000D+00  0.0000000000000D+00
294  2.9300000000000D+00  0.0000000000000D+00  0.0000000000000D+00
295  2.9400000000000D+00  0.0000000000000D+00  0.0000000000000D+00
296  2.9500000000000D+00  0.0000000000000D+00  0.0000000000000D+00
297  2.9600000000000D+00  0.0000000000000D+00  0.0000000000000D+00
298  2.9700000000000D+00  0.0000000000000D+00  0.0000000000000D+00
299  2.9800000000000D+00  0.0000000000000D+00  0.0000000000000D+00
300  2.9900000000000D+00  0.0000000000000D+00  0.0000000000000D+00
301  3.0000000000000D+00  0.0000000000000D+00  0.0000000000000D+00
302  3.0100000000000D+00  0.0000000000000D+00  0.0000000000000D+00
303  3.0200000000000D+00  0.0000000000000D+00  0.0000000000000D+00
304  3.0300000000000D+00  0.0000000000000D+00  0.0000000000000D+00
305  3.0400000000000D+00  0.0000000000000D+00  0.0000000000000D+00
306  3.0500000000000D+00  0.0000000000000D+00  0.0000000000000D+00
307  3.0600000000000D+00  0.0000000000000D+00  0.0000000000000D+00
308  3.0700000000000D+00  0.0000000000000D+00  0.0000000000000D+00
309  3.0800000000000D+00  0.0000000000000D+00  0.0000000000000D+00
310  3.0900000000000D+00  0.0000000000000D+00  0.0000000000000D+00
311  3.1000000000000D+00  0.0000000000000D+00  0.0000000000000D+00
312  3.1100000000000D+00  0.0000000000000D+00  0.0000000000000D+00
313  3.1200000000000D+00  0.0000000000000D+00  0.0000000000000D+00
314  3.1300000000000D+00  0.0000000000000D+00  0.0000000000000D+00
315  3.1400000000000D+00  0.0000000000000D+00  0.0000000000000D+00
316  3.1500000000000D+00  0.0000000000000D+00  0.0000000000000D+00
317  3.1600000000000D+00  0.0000000000000D+00  0.0000000000000D+00
318  3.1700000000000D+00  0.0000000000000D+00  0.0000000000000D+00
319  3.1800000000000D+00  0.0000000000000D+00  0.0000000000000D+00
320  3.1900000000000D+00  0.0000000000000D+00  0.0000000000000D+00
321  3.2000000000000D+00  0.0000000000000D+00  0.0000000000000D+00
322  3.2100000000000D+00  0.0000000000000D+00  0.0000000000000D+00
323  3.2200000000000D+00  0.0000000000000D+00  0.0000000000000D+00
324  3.2300000000000D+00  0.0000000000000D+00  0.0000000000000D+00
325  3.2400000000000D+00  0.0000000000000D+00  0.0000000000000D+00
326  3.2500000000000D+00  0.0000000000000D+00  0.0000000000000D+00
327  3.2600000000000D+00  0.0000000000000D+00  0.0000000000000D+00
328  3.2700000000000D+00  0.0000000000000D+00  0.0000000000000D+00
329  3.2800000000000D+00  0.0000000000000D+00  0.0000000000000D+00
330  3.2900000000000D+00  0.0000000000000D+00  0.0000000000000D+00
331  3.3000000000000D+00  0.0000000000000D+00  0.0000000000000D+00
332  3.3100000000000D+00  0.0000000000000D+00  0.0000000000000D+00
333  3.3200000000000D+00  0.0000000000000D+00  0.0000000000000D+00
334  3.3300000000000D+00  0.0000000000000D+00  0.0000000000000D+00
335  3.3400000000000D+00  0.0000000000000D+00  0.0000000000000D+00
336  3.3500000000000D+00  0.0000000000000D+00  0.0000000000000D+00
337  3.3600000000000D+00  0.0000000000000D+00  0.0000000000000D+00
338  3.3700000000000D+00  0.0000000000000D+00  0.0000000000000D+00
339  3.3800000000000D+00  0.0000000000000D+00  0.0000000000000D+00
340  3.3900000000000D+00  0.0000000000000D+00  0.0000000000000D+00
341  3.4000000000000D+00  0.0000000000000D+00  0.0000000000000D+00
342  3.4100000000000D+00  0.0000000000000D+00  0.0000000000000D+00
343  3.4200000000000D+00  0.0000000000000D+00  0.0000000000000D+00
344  3.4300000000000D+00  0.0000000000000D+00  0.0000000000000D+00
345  3.4400000000000D+00  0.0000000000000D+00  0.0000000000000D+00
346  3.4500000000000D+00  0.0000000000000D+00  0.0000000000000D+00
347  3.4600000000000D+00  0.0000000000000D+00  0.0000000000000D+00
348  3.4700000000000D+00  0.0000000000000D+00  0.0000000000000D+00
349  3.4800000000000D+00  0.0000000000000D+00  0.0000000000000D+00
350  3.4900000000000D+00  0.0000000000000D+00  0.0000000000000D+00
351  3.5000000000000D+00  0.0000000000000D+00  0.0000000000000D+00
352  3.5100000000000D+00  0.0000000000000D+00  0.0000000000000D+00
353  3.5200000000000D+00  0.0000000000000D+00  0.0000000000000D+00
354  3.5300000000000D+00  0.0000000000000D+00  0.0000000000000D+00
355  3.5400000000000D+00  0.0000000000000D+00  0.0000000000000D+00
356  3.5500000000000D+00  0.0000000000000D+00  0.0000000000000D+00
357  3.5600000000000D+00  0.0000000000000D+00  0.0000000000000D+00
358  3.5700000000000D+00  0.0000000000000D+00  0.0000000000000D+00
359  3.5800000000000D+00  0.0000000000000D+00  0.0000000000000D+00
360  3.5900000000000D+00  0.0000000000000D+00  0.0000000000000D+00
361  3.6000000000000D+00  0.0000000000000D+00  0.0000000000000D+00
362  3.6100000000000D+00  0.0000000000000D+00  0.0000000000000D+00
363  3.6200000000000D+00  0.0000000000000D+00  0.0000000000000D+00
364  3.6300000000000D+00  0.0000000000000D+00  0.0000000000000D+00
365  3.6400000000000D+00  0.0000000000000D+00  0.0000000000000D+00
366  3.6500000000000D+00  0.0000000000000D+00  0.0000000000000D+00
367  3.6600000000000D+00  0.0000000000000D+00  0.0000000000000D+00
368  3.6700000000000D+00  0.0000000000000D+00  0.0000000000000D+00
369  3.6800000000000D+00  0.0000000000000D+00  0.0000000000000D+00
370  3.6900000000000D+00  0.0000000000000D+00  0.0000000000000D+00
371  3.7000000000000D+00  0.0000000000000D+00  0.0000000000000D+00
372  3.7100000000000D+00  0.0000000000000D+00  0.0000000000000D+00
373  3.7200000000000D+00  0.0000000000000D+00  0.0000000000000D+00
374  3.7300000000000D+00  0.0000000000000D+00  0.0000000000000D+00
375  3.7400000000000D+00  0.0000000000000D+00  0.0000000000000D+00
376  3.7500000000000D+00  0.0000000000000D+00  0.0000000000000D+00
377  3.7600000000000D+00  0.0000000000000D+00  0.0000000000000D+00
378  3.7700000000000D+00  0.0000000000000D+00  0.0000000000000D+00
379  3.7800000000000D+00  0.0000000000000D+00  0.0000000000000D+00
380  3.7900000000000D+00  0.0000000000000D+00  0.0000000000000D+00
381  3.8000000000000D+00  0.0000000000000D+00  0.0000000000000D+00
382  3.8100000000000D+00  0.0000000000000D+00  0.0000000000000D+00
383  3.8200000000000D+00  0.0000000000000D+00  0.0000000000000D+00
384  3.8300000000000D+00  0.0000000000000D+00  0.0000000000000D+00
385  3.8400000000000D+00  0.0000000000000D+00  0.0000000000000D+00
386  3.8500000000000D+00  0.0000000000000D+00  0.0000000000000D+00
387  3.8600000000000D+00  0.0000000000000D+00  0.0000000000000D+00
388  3.8700000000000D+00  0.0000000000000D+00  0.0000000000000D+00
389  3.8800000000000D+00  0.0000000000000D+00  0.0000000000000D+00
390  3.8900000000000D+00  0.0000000000000D+00  0.0000000000000D+00
391  3.9000000000000D+00  0.0000000000000D+00  0.0000000000000D+00
392  3.9100000000000D+00  0.0000000000000D+00  0.0000000000000D+00
393  3.9200000000000D+00  0.0000000000000D+00  0.0000000000000D+00
394  3.9300000000000D+00  0.0000000000000D+00  0.0000000000000D+00
395  3.9400000000000D+00  0.0000000000000D+00  0.0000000000000D+00
396  3.9500000000000D+00  0.0000000000000D+00  0.0000000000000D+00
397  3.9600000000000D+00  0.0000000000000D+00  0.0000000000000D+00
398  3.9700000000000D+00  0.0000000000000D+00  0.0000000000000D+00
399  3.9800000000000D+00  0.0000000000000D+00  0.0000000000000D+00
400  3.9900000000000D+00  0.0000000000000D+00  0.0000000000000D+00
401  4.0000000000000D+00  0.0000000000000D+00  0.0000000000000D+00
402  4.0100000000000D+00  0.0000000000000D+00  0.0000000000000D+00
403  4.0200000000000D+00  0.0000000000000D+00  0.0000000000000D+00
404  4.0300000000000D+00  0.0000000000000D+00  0.0000000000000D+00
405  4.0400000000000D+00  0.0000000000000D+00  0.0000000000000D+00
406  4.0500000000000D+00  0.0000000000000D+00  0.0000000000000D+00
407  4.0600000000000D+00  0.0000000000000D+00  0.0000000000000D+00
408  4.0700000000000D+00  0.0000000000000D+00  0.0000000000000D+00
409  4.0800000000000D+00  0.0000000000000D+00  0.0000000000000D+00
410  4.0900000000000D+00  0.0000000000000D+00  0.0000000000000D+00
411  4.1000000000000D+00  0.0000000000000D+00  0.0000000000000D+00
412  4.1100000000000D+00  0.0000000000000D+00  0.0000000000000D+00
413  4.1200000000000D+00  0.0000000000000D+00  0.0000000000000D+00
414  4.1300000000000D+00  0.0000000000000D+00  0.0000000000000D+00
415  4.1400000000000D+00  0.0000000000000D+00  0.0000000000000D+00
416  4.1500000000000D+00  0.0000000000000D+00  0.0000000000000D+00
417  4.1600000000000D+00  0.0000000000000D+00  0.0000000000000D+00
418  4.1700000000000D+00  0.0000000000000D+00  0.0000000000000D+00
419  4.1800000000000D+00  0.0000000000000D+00  0.0000000000000D+00
420  4.1900000000000D+00  0.0000000000000D+00  0.0000000000000D+00
421  4.2000000000000D+00  0.0000000000000D+00  0.0000000000000D+00
422  4.2100000000000D+00  0.0000000000000D+00  0.0000000000000D+00
423  4.2200000000000D+00  0.0000000000000D+00  0.0000000000000D+00
424  4.2300000000000D+00  0.0000000000000D+00  0.0000000000000D+00
425  4.2400000000000D+00  0.0000000000000D+00  0.0000000000000D+00
426  4.2500000000000D+00  0.0000000000000D+00  0.0000000000000D+00
427  4.2600000000000D+00  0.0000000000000D+00  0.0000000000000D+00
428  4.2700000000000D+00  0.0000000000000D+00  0.0000000000000D+00
429  4.2800000000000D+00  0.0000000000000D+00  0.0000000000000D+00
430  4.2900000000000D+00  0.0000000000000D+00  0.0000000000000D+00
431  4.3000000000000D+00  0.0000000000000D+00  0.0000000000000D+00
432  4.3100000000000D+00  0.0000000000000D+00  0.0000000000000D+00
433  4.3200000000000D+00  0.0000000000000D+00  0.0000000000000D+00
434  4.3300000000000D+00  0.0000000000000D+00  0.0000000000000D+00
435  4.3400000000000D+00  0.0000000000000D+00  0.0000000000000D+00
436  4.3500000000000D+00  0.0000000000000D+00  0.0000000000000D+00
437  4.3600000000000D+00  0.0000000000000D+00  0.0000000000000D+00
438  4.3700000000000D+00  0.0000000000000D+00  0.0000000000000D+00
439  4.3800000000000D+00  0.0000000000000D+00  0.0000000000000D+00
440  4.3900000000000D+00  0.0000000000000D+00  0.0000000000000D+00
441  4.4000000000000D+00  0.0000000000000D+00  0.0000000000000D+00
442  4.4100000000000D+00  0.0000000000000D+00  0.0000000000000D+00
443  4.4200000000000D+00  0.0000000000000D+00  0.0000000000000D+00