Te    ONCVPSP-3.3.0  r_core=   2.26547   1.91704   1.80604
52.0000     16.0000      180506    zatom,zion,pspd
8 -116133   2     4   600     0    pspcod,pspxc,lmax,lloc,mmax,r2well
5.99000000  5.00000000  0.00000000    rchrg fchrg qchrg
2     4     2     0    nproj
3     1           extension_switch
4     3     0    nprojso
0                         7.6705296756801D-01  6.2432854084142D+00
1  0.0000000000000D+00  5.4121013226549D-12  3.0369040615597D-12
2  1.0000000000000D-02 -2.1476545360001D-03  1.6794869809058D-02
3  2.0000000000000D-02 -4.3124409472994D-03  3.3604545438170D-02
4  3.0000000000000D-02 -6.5114268268243D-03  5.0443752690849D-02
5  4.0000000000000D-02 -8.7615512093115D-03  6.7327057600548D-02
6  5.0000000000000D-02 -1.1079560309981D-02  8.4268787202459D-02
7  6.0000000000000D-02 -1.3481943288405D-02  1.0128295109135D-01
8  7.0000000000000D-02 -1.5984868052398D-02  1.1838316402393D-01
9  8.0000000000000D-02 -1.8604117122153D-02  1.3558256982119D-01
10  9.0000000000000D-02 -2.1355023581595D-02  1.5289376682233D-01
11  1.0000000000000D-01 -2.4252407151796D-02  1.7032873513755D-01
12  1.1000000000000D-01 -2.7310510430381D-02  1.8789876594153D-01
13  1.2000000000000D-01 -3.0542935350939D-02  2.0561439304359D-01
14  1.3000000000000D-01 -3.3962579927607D-02  2.2348532696397D-01
15  1.4000000000000D-01 -3.7581575361902D-02  2.4152039173812D-01
16  1.5000000000000D-01 -4.1411223601691D-02  2.5972746466318D-01
17  1.6000000000000D-01 -4.5461935455505D-02  2.7811341919194D-01
18  1.7000000000000D-01 -4.9743169379442D-02  2.9668407117048D-01
19  1.8000000000000D-01 -5.4263371068119D-02  3.1544412860579D-01
20  1.9000000000000D-01 -5.9029913995876D-02  3.3439714513933D-01
21  2.0000000000000D-01 -6.4049041068994D-02  3.5354547739120D-01
22  2.1000000000000D-01 -6.9325807564518D-02  3.7289024632860D-01
23  2.2000000000000D-01 -7.4864025545855D-02  3.9243130279979D-01
24  2.3000000000000D-01 -8.0666209959365D-02  4.1216719736257D-01
25  2.4000000000000D-01 -8.6733526630044D-02  4.3209515452335D-01
26  2.5000000000000D-01 -9.3065742387558D-02  4.5221105148963D-01
27  2.6000000000000D-01 -9.9661177566106D-02  4.7250940152502D-01
28  2.7000000000000D-01 -1.0651666113307D-01  4.9298334198201D-01
29  2.8000000000000D-01 -1.1362748871184D-01  5.1362462707343D-01
30  2.9000000000000D-01 -1.2098738377313D-01  5.3442362542915D-01
31  3.0000000000000D-01 -1.2858846227708D-01  5.5536932246966D-01
32  3.1000000000000D-01 -1.3642120105447D-01  5.7644932761352D-01
33  3.2000000000000D-01 -1.4447441022029D-01  5.9764988632060D-01
34  3.3000000000000D-01 -1.5273520991544D-01  6.1895589695795D-01
35  3.4000000000000D-01 -1.6118901167377D-01  6.4035093246001D-01
36  3.5000000000000D-01 -1.6981950471032D-01  6.6181726673991D-01
37  3.6000000000000D-01 -1.7860864742412D-01  6.8333590579336D-01
38  3.7000000000000D-01 -1.8753666440325D-01  7.0488662342195D-01
39  3.8000000000000D-01 -1.9658204921304D-01  7.2644800148753D-01
40  3.9000000000000D-01 -2.0572157323839D-01  7.4799747459517D-01
41  4.0000000000000D-01 -2.1493030083948D-01  7.6951137908735D-01
42  4.1000000000000D-01 -2.2418161106590D-01  7.9096500621836D-01
43  4.2000000000000D-01 -2.3344722615766D-01  8.1233265936381D-01
44  4.3000000000000D-01 -2.4269724704262D-01  8.3358771510691D-01
45  4.4000000000000D-01 -2.5190019601888D-01  8.5470268803019D-01
46  4.5000000000000D-01 -2.6102306678687D-01  8.7564929902869D-01
47  4.6000000000000D-01 -2.7003138197037D-01  8.9639854694876D-01
48  4.7000000000000D-01 -2.7888925823775D-01  9.1692078334517D-01
49  4.8000000000000D-01 -2.8755947910460D-01  9.3718579013798D-01
50  4.9000000000000D-01 -2.9600357546703D-01  9.5716285994097D-01
51  5.0000000000000D-01 -3.0418191388107D-01  9.7682087882309D-01
52  5.1000000000000D-01 -3.1205379256778D-01  9.9612841125615D-01
53  5.2000000000000D-01 -3.1957754508672D-01  1.0150537869932D+00
54  5.3000000000000D-01 -3.2671065158152D-01  1.0335651896153D+00
55  5.4000000000000D-01 -3.3340985746146D-01  1.0516307464765D+00
56  5.5000000000000D-01 -3.3963129934190D-01  1.0692186197734D+00
57  5.6000000000000D-01 -3.4533063802450D-01  1.0862970984573D+00
58  5.7000000000000D-01 -3.5046319825565D-01  1.1028346907063D+00
59  5.8000000000000D-01 -3.5498411495834D-01  1.1188002166694D+00
60  5.9000000000000D-01 -3.5884848558988D-01  1.1341629011923D+00
61  6.0000000000000D-01 -3.6201152823393D-01  1.1488924662348D+00
62  6.1000000000000D-01 -3.6442874499363D-01  1.1629592226878D+00
63  6.2000000000000D-01 -3.6605609020889D-01  1.1763341612988D+00
64  6.3000000000000D-01 -3.6685014298046D-01  1.1889890424164D+00
65  6.4000000000000D-01 -3.6676828344257D-01  1.2008964842665D+00
66  6.5000000000000D-01 -3.6576887218654D-01  1.2120300494768D+00
67  6.6000000000000D-01 -3.6381143220096D-01  1.2223643295691D+00
68  6.7000000000000D-01 -3.6085683265778D-01  1.2318750271456D+00
69  6.8000000000000D-01 -3.5686747384083D-01  1.2405390355015D+00
70  6.9000000000000D-01 -3.5180747248163D-01  1.2483345154011D+00
71  7.0000000000000D-01 -3.4564284673968D-01  1.2552409687657D+00
72  7.1000000000000D-01 -3.3834170003847D-01  1.2612393090283D+00
73  7.2000000000000D-01 -3.2987440294656D-01  1.2663119279192D+00
74  7.3000000000000D-01 -3.2021377227374D-01  1.2704427584605D+00
75  7.4000000000000D-01 -3.0933524653776D-01  1.2736173339536D+00
76  7.5000000000000D-01 -2.9721705694445D-01  1.2758228427611D+00
77  7.6000000000000D-01 -2.8384039301796D-01  1.2770481786921D+00
78  7.7000000000000D-01 -2.6918956201307D-01  1.2772839868187D+00
79  7.8000000000000D-01 -2.5325214124359D-01  1.2765227045603D+00
80  7.9000000000000D-01 -2.3601912246534D-01  1.2747585978905D+00
81  8.0000000000000D-01 -2.1748504746256D-01  1.2719877925350D+00
82  8.1000000000000D-01 -1.9764813400088D-01  1.2682083000453D+00
83  8.2000000000000D-01 -1.7651039132888D-01  1.2634200386474D+00
84  8.3000000000000D-01 -1.5407772443451D-01  1.2576248487841D+00
85  8.4000000000000D-01 -1.3036002629058D-01  1.2508265032836D+00
86  8.5000000000000D-01 -1.0537125735709D-01  1.2430307121045D+00
87  8.6000000000000D-01 -7.9129511645696D-02  1.2342451216266D+00
88  8.7000000000000D-01 -5.1657068694115D-02  1.2244793084723D+00
89  8.8000000000000D-01 -2.2980430844808D-02  1.2137447678606D+00
90  8.9000000000000D-01  6.8696547263635D-03  1.2020548965159D+00
91  9.0000000000000D-01  3.7858189730713D-02  1.1894249701679D+00
92  9.1000000000000D-01  6.9945934676601D-02  1.1758721156987D+00
93  9.2000000000000D-01  1.0308943534544D-01  1.1614152780103D+00
94  9.3000000000000D-01  1.3724106614431D-01  1.1460751817006D+00
95  9.4000000000000D-01  1.7234909057601D-01  1.1298742876564D+00
96  9.5000000000000D-01  2.0835773899436D-01  1.1128367446840D+00
97  9.6000000000000D-01  2.4520730373721D-01  1.0949883363188D+00
98  9.7000000000000D-01  2.8283425165240D-01  1.0763564229663D+00
99  9.8000000000000D-01  3.2117135395056D-01  1.0569698795460D+00
100  9.9000000000000D-01  3.6014783324038D-01  1.0368590288207D+00
101  1.0000000000000D+00  3.9968952751626D-01  1.0160555706106D+00
102  1.0100000000000D+00  4.3971907078655D-01  9.9459250710368D-01
103  1.0200000000000D+00  4.8015608994693D-01  9.7250406448553D-01
104  1.0300000000000D+00  5.2091741741953D-01  9.4982561112486D-01
105  1.0400000000000D+00  5.6191731899453D-01  9.2659357256220D-01
106  1.0500000000000D+00  6.0306773622987D-01  9.0284534355824D-01
107  1.0600000000000D+00  6.4427854268488D-01  8.7861919746842D-01
108  1.0700000000000D+00  6.8545781318079D-01  8.5395419321896D-01
109  1.0800000000000D+00  7.2651210520853D-01  8.2889008016680D-01
110  1.0900000000000D+00  7.6734675152649D-01  8.0346720113243D-01
111  1.1000000000000D+00  8.0786616292405D-01  7.7772639390046D-01
112  1.1100000000000D+00  8.4797414005804D-01  7.5170889148719D-01
113  1.1200000000000D+00  8.8757419320295D-01  7.2545622147843D-01
114  1.1300000000000D+00  9.2656986870104D-01  6.9901010474307D-01
115  1.1400000000000D+00  9.6486508084143D-01  6.7241235382976D-01
116  1.1500000000000D+00  1.0023644478550D+00  6.4570477135452D-01
117  1.1600000000000D+00  1.0389736306577D+00  6.1892904868700D-01
118  1.1700000000000D+00  1.0745996729458D+00  5.9212666524118D-01
119  1.1800000000000D+00  1.1091513412142D+00  5.6533878867409D-01
120  1.1900000000000D+00  1.1425394632431D+00  5.3860617629333D-01
121  1.2000000000000D+00  1.1746772635769D+00  5.1196907796900D-01
122  1.2100000000000D+00  1.2054806945148D+00  4.8546714083932D-01
123  1.2200000000000D+00  1.2348687611225D+00  4.5913931609661D-01
124  1.2300000000000D+00  1.2627638387775D+00  4.3302376812925D-01
125  1.2400000000000D+00  1.2890919817771D+00  4.0715778628755D-01
126  1.2500000000000D+00  1.3137832215469D+00  3.8157769953593D-01
127  1.2600000000000D+00  1.3367718530113D+00  3.5631879424178D-01
128  1.2700000000000D+00  1.3579967077381D+00  3.3141523533794D-01
129  1.2800000000000D+00  1.3774014124831D+00  3.0689999109094D-01
130  1.2900000000000D+00  1.3949346318113D+00  2.8280476169286D-01
131  1.3000000000000D+00  1.4105502935587D+00  2.5915991187557D-01
132  1.3100000000000D+00  1.4242077959060D+00  2.3599440774506D-01
133  1.3200000000000D+00  1.4358721949207D+00  2.1333575801357D-01
134  1.3300000000000D+00  1.4455143715578D+00  1.9120995978445D-01
135  1.3400000000000D+00  1.4531111770598D+00  1.6964144905215D-01
136  1.3500000000000D+00  1.4586455558923D+00  1.4865305604475D-01
137  1.3600000000000D+00  1.4621066454600D+00  1.2826596552000D-01
138  1.3700000000000D+00  1.4634898517490D+00  1.0849968214047D-01
139  1.3800000000000D+00  1.4627969004279D+00  8.9372000991690D-02
140  1.3900000000000D+00  1.4600358628251D+00  7.0898983327394D-02
141  1.4000000000000D+00  1.4552211563180D+00  5.3094937604999D-02
142  1.4100000000000D+00  1.4483735190182D+00  3.5972405826079D-02
143  1.4200000000000D+00  1.4395199583237D+00  1.9542155240206D-02
144  1.4300000000000D+00  1.4286936734756D+00  3.8131753907078D-03
145  1.4400000000000D+00  1.4159339520880D+00 -1.1207319494436D-02
146  1.4500000000000D+00  1.4012860407061D+00 -2.5513882776709D-02
147  1.4600000000000D+00  1.3848009899527D+00 -3.9102822422492D-02
148  1.4700000000000D+00  1.3665354742545D+00 -5.1972182761791D-02
149  1.4800000000000D+00  1.3465515870584D+00 -6.4121721112170D-02
150  1.4900000000000D+00  1.3249166118651D+00 -7.5552879313822D-02
151  1.5000000000000D+00  1.3017027699295D+00 -8.6268750289508D-02
152  1.5100000000000D+00  1.2769869455337D+00 -9.6274039749791D-02
153  1.5200000000000D+00  1.2508503895227D+00 -1.0557502313660D-01
154  1.5300000000000D+00  1.2233784025610D+00 -1.1417949799643D-01
155  1.5400000000000D+00  1.1946599987206D+00 -1.2209673186540D-01
156  1.5500000000000D+00  1.1647875511788D+00 -1.2933740589937D-01
157  1.5600000000000D+00  1.1338564208529D+00 -1.3591355435842D-01
158  1.5700000000000D+00  1.1019645697443D+00 -1.4183850017912D-01
159  1.5800000000000D+00  1.0692121601917D+00 -1.4712678679271D-01
160  1.5900000000000D+00  1.0357011417264D+00 -1.5179410641212D-01
161  1.6000000000000D+00  1.0015348270468D+00 -1.5585722499096D-01
162  1.6100000000000D+00  9.6681745875881D-01 -1.5933390406953D-01
163  1.6200000000000D+00  9.3165376860655D-01 -1.6224281974571D-01
164  1.6300000000000D+00  8.9614853085351D-01 -1.6460347898348D-01
165  1.6400000000000D+00  8.6040611161937D-01 -1.6643613352007D-01
166  1.6500000000000D+00  8.2453001590706D-01 -1.6776169158820D-01
167  1.6600000000000D+00  7.8862243408036D-01 -1.6860162772557D-01
168  1.6700000000000D+00  7.5278378965777D-01 -1.6897789089776D-01
169  1.6800000000000D+00  7.1711229001884D-01 -1.6891281120664D-01
170  1.6900000000000D+00  6.8170348206188D-01 -1.6842900542474D-01
171  1.7000000000000D+00  6.4664981414777D-01 -1.6754928161830D-01
172  1.7100000000000D+00  6.1204020655711D-01 -1.6629654311635D-01
173  1.7200000000000D+00  5.7795963147082D-01 -1.6469369207193D-01
174  1.7300000000000D+00  5.4448870486672D-01 -1.6276353289037D-01
175  1.7400000000000D+00  5.1170329100226D-01 -1.6052867574965D-01
176  1.7500000000000D+00  4.7967411672716D-01 -1.5801143960851D-01
177  1.7600000000000D+00  4.4846642922100D-01 -1.5523376057423D-01
178  1.7700000000000D+00  4.1813958097008D-01 -1.5221708523208D-01
179  1.7800000000000D+00  3.8874685543602D-01 -1.4898230534369D-01
180  1.7900000000000D+00  3.6033509381315D-01 -1.4554965198548D-01
181  1.8000000000000D+00  3.3294400299859D-01 -1.4193853734906D-01
182  1.8100000000000D+00  3.0660634434847D-01 -1.3816754465813D-01
183  1.8200000000000D+00  2.8134873289877D-01 -1.3425451409566D-01
184  1.8300000000000D+00  2.5719220945064D-01 -1.3021660438890D-01
185  1.8400000000000D+00  2.3415302628688D-01 -1.2607041609023D-01
186  1.8500000000000D+00  2.1224352233324D-01 -1.2183212397146D-01
187  1.8600000000000D+00  1.9147173352312D-01 -1.1751739835615D-01
188  1.8700000000000D+00  1.7184121677168D-01 -1.1314137085533D-01
189  1.8800000000000D+00  1.5335136390632D-01 -1.0871866655023D-01
190  1.8900000000000D+00  1.3599738146465D-01 -1.0426338561912D-01
191  1.9000000000000D+00  1.1977040418010D-01 -9.9789103534125D-02
192  1.9100000000000D+00  1.0465760773726D-01 -9.5308869601454D-02
193  1.9200000000000D+00  9.0642335977215D-02 -9.0835206111491D-02
194  1.9300000000000D+00  7.7704246651239D-02 -8.6380108872503D-02
195  1.9400000000000D+00  6.5819472535738D-02 -8.1955048784042D-02
196  1.9500000000000D+00  5.4960799365111D-02 -7.7570974582225D-02
197  1.9600000000000D+00  4.5097856373599D-02 -7.3238316464956D-02
198  1.9700000000000D+00  3.6197322551844D-02 -6.8966990888654D-02
199  1.9800000000000D+00  2.8223143819043D-02 -6.4766406168951D-02
200  1.9900000000000D+00  2.1136762667462D-02 -6.0645469065338D-02
201  2.0000000000000D+00  1.4897357881101D-02 -5.6612592178477D-02
202  2.0100000000000D+00  9.4620929275201D-03 -5.2675702079827D-02
203  2.0200000000000D+00  4.7863728744949D-03 -4.8842248211013D-02
204  2.0300000000000D+00  8.2410677001561D-04 -4.5119212308521D-02
205  2.0400000000000D+00 -2.4720242415211D-03 -4.1513118442289D-02
206  2.0500000000000D+00 -5.1502956701881D-03 -3.8030043457875D-02
207  2.0600000000000D+00 -7.2596662758219D-03 -3.4675627791022D-02
208  2.0700000000000D+00 -8.8495040051082D-03 -3.1455086562851D-02
209  2.0800000000000D+00 -9.9693126596631D-03 -2.8373220855114D-02
210  2.0900000000000D+00 -1.0668461286533D-02 -2.5434429063999D-02
211  2.1000000000000D+00 -1.0995916760246D-02 -2.2642718287041D-02
212  2.1100000000000D+00 -1.0999982030890D-02 -2.0001715598317D-02
213  2.1200000000000D+00 -1.0728041084093D-02 -1.7514679145731D-02
214  2.1300000000000D+00 -1.0226310890998D-02 -1.5184509053612D-02
215  2.1400000000000D+00 -9.5396043648467D-03 -1.3013757879862D-02
216  2.1500000000000D+00 -8.7111021218854D-03 -1.1004640768359D-02
217  2.1600000000000D+00 -7.7821370118785D-03 -9.1590450481869D-03
218  2.1700000000000D+00 -6.7919921729723D-03 -7.4785392342182D-03
219  2.1800000000000D+00 -5.7777106287995D-03 -5.9643815542021D-03
220  2.1900000000000D+00 -4.7749358419497D-03 -4.6179652885558D-03
221  2.2000000000000D+00 -3.8149793562612D-03 -3.4396266350663D-03
222  2.2100000000000D+00 -2.9240304596194D-03 -2.4283703108601D-03
223  2.2200000000000D+00 -2.1203301313638D-03 -1.5820547873051D-03
224  2.2300000000000D+00 -1.4482751629696D-03 -9.0703950964307D-04
225  2.2400000000000D+00 -9.4489728076346D-04 -4.0737136969200D-04
226  2.2500000000000D+00 -6.2977865907068D-04 -7.9780679246902D-05
227  2.2600000000000D+00 -4.3188225736920D-04  9.2772648523909D-05
228  2.2700000000000D+00 -2.7751106448866D-04  1.3400189634326D-04
229  2.2800000000000D+00 -1.3262581301928D-04  8.8180686297815D-05
230  2.2900000000000D+00 -2.1675010239326D-05  1.6879521338111D-05
231  2.3000000000000D+00  2.3939542106600D-05 -1.9962247957521D-05
232  2.3100000000000D+00  2.1611290536034D-05 -1.9446026967002D-05
233  2.3200000000000D+00  3.7482336806469D-07 -3.5622581558793D-07
234  2.3300000000000D+00 -6.2389285320903D-06  4.5511043680369D-06
235  2.3400000000000D+00 -4.7412079960361D-06  3.5589583422324D-06
236  2.3500000000000D+00  2.5755751292588D-07 -9.6218683614293D-08
237  2.3600000000000D+00  9.8537882225188D-07 -3.6811915156893D-07
238  2.3700000000000D+00  6.0073895149900D-07 -2.2442486904157D-07
239  2.3800000000000D+00  0.0000000000000D+00  0.0000000000000D+00
240  2.3900000000000D+00  0.0000000000000D+00  0.0000000000000D+00
241  2.4000000000000D+00  0.0000000000000D+00  0.0000000000000D+00
242  2.4100000000000D+00  0.0000000000000D+00  0.0000000000000D+00
243  2.4200000000000D+00  0.0000000000000D+00  0.0000000000000D+00
244  2.4300000000000D+00  0.0000000000000D+00  0.0000000000000D+00
245  2.4400000000000D+00  0.0000000000000D+00  0.0000000000000D+00
246  2.4500000000000D+00  0.0000000000000D+00  0.0000000000000D+00
247  2.4600000000000D+00  0.0000000000000D+00  0.0000000000000D+00
248  2.4700000000000D+00  0.0000000000000D+00  0.0000000000000D+00
249  2.4800000000000D+00  0.0000000000000D+00  0.0000000000000D+00
250  2.4900000000000D+00  0.0000000000000D+00  0.0000000000000D+00
251  2.5000000000000D+00  0.0000000000000D+00  0.0000000000000D+00
252  2.5100000000000D+00  0.0000000000000D+00  0.0000000000000D+00
253  2.5200000000000D+00  0.0000000000000D+00  0.0000000000000D+00
254  2.5300000000000D+00  0.0000000000000D+00  0.0000000000000D+00
255  2.5400000000000D+00  0.0000000000000D+00  0.0000000000000D+00
256  2.5500000000000D+00  0.0000000000000D+00  0.0000000000000D+00
257  2.5600000000000D+00  0.0000000000000D+00  0.0000000000000D+00
258  2.5700000000000D+00  0.0000000000000D+00  0.0000000000000D+00
259  2.5800000000000D+00  0.0000000000000D+00  0.0000000000000D+00
260  2.5900000000000D+00  0.0000000000000D+00  0.0000000000000D+00
261  2.6000000000000D+00  0.0000000000000D+00  0.0000000000000D+00
262  2.6100000000000D+00  0.0000000000000D+00  0.0000000000000D+00
263  2.6200000000000D+00  0.0000000000000D+00  0.0000000000000D+00
264  2.6300000000000D+00  0.0000000000000D+00  0.0000000000000D+00
265  2.6400000000000D+00  0.0000000000000D+00  0.0000000000000D+00
266  2.6500000000000D+00  0.0000000000000D+00  0.0000000000000D+00
267  2.6600000000000D+00  0.0000000000000D+00  0.0000000000000D+00
268  2.6700000000000D+00  0.0000000000000D+00  0.0000000000000D+00
269  2.6800000000000D+00  0.0000000000000D+00  0.0000000000000D+00
270  2.6900000000000D+00  0.0000000000000D+00  0.0000000000000D+00
271  2.7000000000000D+00  0.0000000000000D+00  0.0000000000000D+00
272  2.7100000000000D+00  0.0000000000000D+00  0.0000000000000D+00
273  2.7200000000000D+00  0.0000000000000D+00  0.0000000000000D+00
274  2.7300000000000D+00  0.0000000000000D+00  0.0000000000000D+00
275  2.7400000000000D+00  0.0000000000000D+00  0.0000000000000D+00
276  2.7500000000000D+00  0.0000000000000D+00  0.0000000000000D+00
277  2.7600000000000D+00  0.0000000000000D+00  0.0000000000000D+00
278  2.7700000000000D+00  0.0000000000000D+00  0.0000000000000D+00
279  2.7800000000000D+00  0.0000000000000D+00  0.0000000000000D+00
280  2.7900000000000D+00  0.0000000000000D+00  0.0000000000000D+00
281  2.8000000000000D+00  0.0000000000000D+00  0.0000000000000D+00
282  2.8100000000000D+00  0.0000000000000D+00  0.0000000000000D+00
283  2.8200000000000D+00  0.0000000000000D+00  0.0000000000000D+00
284  2.8300000000000D+00  0.0000000000000D+00  0.0000000000000D+00
285  2.8400000000000D+00  0.0000000000000D+00  0.0000000000000D+00
286  2.8500000000000D+00  0.0000000000000D+00  0.0000000000000D+00
287  2.8600000000000D+00  0.0000000000000D+00  0.0000000000000D+00
288  2.8700000000000D+00  0.0000000000000D+00  0.0000000000000D+00
289  2.8800000000000D+00  0.0000000000000D+00  0.0000000000000D+00
290  2.8900000000000D+00  0.0000000000000D+00  0.0000000000000D+00
291  2.9000000000000D+00  0.0000000000000D+00  0.0000000000000D+00
292  2.9100000000000D+00  0.0000000000000D+00  0.0000000000000D+00
293  2.9200000000000D+00  0.0000000000000D+00  0.0000000000000D+00
294  2.9300000000000D+00  0.0000000000000D+00  0.0000000000000D+00
295  2.9400000000000D+00  0.0000000000000D+00  0.0000000000000D+00
296  2.9500000000000D+00  0.0000000000000D+00  0.0000000000000D+00
297  2.9600000000000D+00  0.0000000000000D+00  0.0000000000000D+00
298  2.9700000000000D+00  0.0000000000000D+00  0.0000000000000D+00
299  2.9800000000000D+00  0.0000000000000D+00  0.0000000000000D+00
300  2.9900000000000D+00  0.0000000000000D+00  0.0000000000000D+00
301  3.0000000000000D+00  0.0000000000000D+00  0.0000000000000D+00
302  3.0100000000000D+00  0.0000000000000D+00  0.0000000000000D+00
303  3.0200000000000D+00  0.0000000000000D+00  0.0000000000000D+00
304  3.0300000000000D+00  0.0000000000000D+00  0.0000000000000D+00
305  3.0400000000000D+00  0.0000000000000D+00  0.0000000000000D+00
306  3.0500000000000D+00  0.0000000000000D+00  0.0000000000000D+00
307  3.0600000000000D+00  0.0000000000000D+00  0.0000000000000D+00
308  3.0700000000000D+00  0.0000000000000D+00  0.0000000000000D+00
309  3.0800000000000D+00  0.0000000000000D+00  0.0000000000000D+00
310  3.0900000000000D+00  0.0000000000000D+00  0.0000000000000D+00
311  3.1000000000000D+00  0.0000000000000D+00  0.0000000000000D+00
312  3.1100000000000D+00  0.0000000000000D+00  0.0000000000000D+00
313  3.1200000000000D+00  0.0000000000000D+00  0.0000000000000D+00
314  3.1300000000000D+00  0.0000000000000D+00  0.0000000000000D+00
315  3.1400000000000D+00  0.0000000000000D+00  0.0000000000000D+00
316  3.1500000000000D+00  0.0000000000000D+00  0.0000000000000D+00
317  3.1600000000000D+00  0.0000000000000D+00  0.0000000000000D+00
318  3.1700000000000D+00  0.0000000000000D+00  0.0000000000000D+00
319  3.1800000000000D+00  0.0000000000000D+00  0.0000000000000D+00
320  3.1900000000000D+00  0.0000000000000D+00  0.0000000000000D+00
321  3.2000000000000D+00  0.0000000000000D+00  0.0000000000000D+00
322  3.2100000000000D+00  0.0000000000000D+00  0.0000000000000D+00
323  3.2200000000000D+00  0.0000000000000D+00  0.0000000000000D+00
324  3.2300000000000D+00  0.0000000000000D+00  0.0000000000000D+00
325  3.2400000000000D+00  0.0000000000000D+00  0.0000000000000D+00
326  3.2500000000000D+00  0.0000000000000D+00  0.0000000000000D+00
327  3.2600000000000D+00  0.0000000000000D+00  0.0000000000000D+00
328  3.2700000000000D+00  0.0000000000000D+00  0.0000000000000D+00
329  3.2800000000000D+00  0.0000000000000D+00  0.0000000000000D+00
330  3.2900000000000D+00  0.0000000000000D+00  0.0000000000000D+00
331  3.3000000000000D+00  0.0000000000000D+00  0.0000000000000D+00
332  3.3100000000000D+00  0.0000000000000D+00  0.0000000000000D+00
333  3.3200000000000D+00  0.0000000000000D+00  0.0000000000000D+00
334  3.3300000000000D+00  0.0000000000000D+00  0.0000000000000D+00
335  3.3400000000000D+00  0.0000000000000D+00  0.0000000000000D+00
336  3.3500000000000D+00  0.0000000000000D+00  0.0000000000000D+00
337  3.3600000000000D+00  0.0000000000000D+00  0.0000000000000D+00
338  3.3700000000000D+00  0.0000000000000D+00  0.0000000000000D+00
339  3.3800000000000D+00  0.0000000000000D+00  0.0000000000000D+00
340  3.3900000000000D+00  0.0000000000000D+00  0.0000000000000D+00
341  3.4000000000000D+00  0.0000000000000D+00  0.0000000000000D+00
342  3.4100000000000D+00  0.0000000000000D+00  0.0000000000000D+00
343  3.4200000000000D+00  0.0000000000000D+00  0.0000000000000D+00
344  3.4300000000000D+00  0.0000000000000D+00  0.0000000000000D+00
345  3.4400000000000D+00  0.0000000000000D+00  0.0000000000000D+00
346  3.4500000000000D+00  0.0000000000000D+00  0.0000000000000D+00
347  3.4600000000000D+00  0.0000000000000D+00  0.0000000000000D+00
348  3.4700000000000D+00  0.0000000000000D+00  0.0000000000000D+00
349  3.4800000000000D+00  0.0000000000000D+00  0.0000000000000D+00
350  3.4900000000000D+00  0.0000000000000D+00  0.0000000000000D+00
351  3.5000000000000D+00  0.0000000000000D+00  0.0000000000000D+00
352  3.5100000000000D+00  0.0000000000000D+00  0.0000000000000D+00
353  3.5200000000000D+00  0.0000000000000D+00  0.0000000000000D+00
354  3.5300000000000D+00  0.0000000000000D+00  0.0000000000000D+00
355  3.5400000000000D+00  0.0000000000000D+00  0.0000000000000D+00
356  3.5500000000000D+00  0.0000000000000D+00  0.0000000000000D+00
357  3.5600000000000D+00  0.0000000000000D+00  0.0000000000000D+00
358  3.5700000000000D+00  0.0000000000000D+00  0.0000000000000D+00
359  3.5800000000000D+00  0.0000000000000D+00  0.0000000000000D+00
360  3.5900000000000D+00  0.0000000000000D+00  0.0000000000000D+00
361  3.6000000000000D+00  0.0000000000000D+00  0.0000000000000D+00
362  3.6100000000000D+00  0.0000000000000D+00  0.0000000000000D+00
363  3.6200000000000D+00  0.0000000000000D+00  0.0000000000000D+00
364  3.6300000000000D+00  0.0000000000000D+00  0.0000000000000D+00
365  3.6400000000000D+00  0.0000000000000D+00  0.0000000000000D+00
366  3.6500000000000D+00  0.0000000000000D+00  0.0000000000000D+00
367  3.6600000000000D+00  0.0000000000000D+00  0.0000000000000D+00
368  3.6700000000000D+00  0.0000000000000D+00  0.0000000000000D+00
369  3.6800000000000D+00  0.0000000000000D+00  0.0000000000000D+00
370  3.6900000000000D+00  0.0000000000000D+00  0.0000000000000D+00
371  3.7000000000000D+00  0.0000000000000D+00  0.0000000000000D+00
372  3.7100000000000D+00  0.0000000000000D+00  0.0000000000000D+00
373  3.7200000000000D+00  0.0000000000000D+00  0.0000000000000D+00
374  3.7300000000000D+00  0.0000000000000D+00  0.0000000000000D+00
375  3.7400000000000D+00  0.0000000000000D+00  0.0000000000000D+00
376  3.7500000000000D+00  0.0000000000000D+00  0.0000000000000D+00
377  3.7600000000000D+00  0.0000000000000D+00  0.0000000000000D+00
378  3.7700000000000D+00  0.0000000000000D+00  0.0000000000000D+00
379  3.7800000000000D+00  0.0000000000000D+00  0.0000000000000D+00
380  3.7900000000000D+00  0.0000000000000D+00  0.0000000000000D+00
381  3.8000000000000D+00  0.0000000000000D+00  0.0000000000000D+00
382  3.8100000000000D+00  0.0000000000000D+00  0.0000000000000D+00
383  3.8200000000000D+00  0.0000000000000D+00  0.0000000000000D+00
384  3.8300000000000D+00  0.0000000000000D+00  0.0000000000000D+00
385  3.8400000000000D+00  0.0000000000000D+00  0.0000000000000D+00
386  3.8500000000000D+00  0.0000000000000D+00  0.0000000000000D+00
387  3.8600000000000D+00  0.0000000000000D+00  0.0000000000000D+00
388  3.8700000000000D+00  0.0000000000000D+00  0.0000000000000D+00
389  3.8800000000000D+00  0.0000000000000D+00  0.0000000000000D+00
390  3.8900000000000D+00  0.0000000000000D+00  0.0000000000000D+00
391  3.9000000000000D+00  0.0000000000000D+00  0.0000000000000D+00
392  3.9100000000000D+00  0.0000000000000D+00  0.0000000000000D+00
393  3.9200000000000D+00  0.0000000000000D+00  0.0000000000000D+00
394  3.9300000000000D+00  0.0000000000000D+00  0.0000000000000D+00
395  3.9400000000000D+00  0.0000000000000D+00  0.0000000000000D+00
396  3.9500000000000D+00  0.0000000000000D+00  0.0000000000000D+00
397  3.9600000000000D+00  0.0000000000000D+00  0.0000000000000D+00
398  3.9700000000000D+00  0.0000000000000D+00  0.0000000000000D+00
399  3.9800000000000D+00  0.0000000000000D+00  0.0000000000000D+00
400  3.9900000000000D+00  0.0000000000000D+00  0.0000000000000D+00
401  4.0000000000000D+00  0.0000000000000D+00  0.0000000000000D+00
402  4.0100000000000D+00  0.0000000000000D+00  0.0000000000000D+00
403  4.0200000000000D+00  0.0000000000000D+00  0.0000000000000D+00
404  4.0300000000000D+00  0.0000000000000D+00  0.0000000000000D+00
405  4.0400000000000D+00  0.0000000000000D+00  0.0000000000000D+00
406  4.0500000000000D+00  0.0000000000000D+00  0.0000000000000D+00
407  4.0600000000000D+00  0.0000000000000D+00  0.0000000000000D+00
408  4.0700000000000D+00  0.0000000000000D+00  0.0000000000000D+00
409  4.0800000000000D+00  0.0000000000000D+00  0.0000000000000D+00
410  4.0900000000000D+00  0.0000000000000D+00  0.0000000000000D+00
411  4.1000000000000D+00  0.0000000000000D+00  0.0000000000000D+00
412  4.1100000000000D+00  0.0000000000000D+00  0.0000000000000D+00
413  4.1200000000000D+00  0.0000000000000D+00  0.0000000000000D+00
414  4.1300000000000D+00  0.0000000000000D+00  0.0000000000000D+00
415  4.1400000000000D+00  0.0000000000000D+00  0.0000000000000D+00
416  4.1500000000000D+00  0.0000000000000D+00  0.0000000000000D+00
417  4.1600000000000D+00  0.0000000000000D+00  0.0000000000000D+00
418  4.1700000000000D+00  0.0000000000000D+00  0.0000000000000D+00
419  4.1800000000000D+00  0.0000000000000D+00  0.0000000000000D+00
420  4.1900000000000D+00  0.0000000000000D+00  0.0000000000000D+00
421  4.2000000000000D+00  0.0000000000000D+00  0.0000000000000D+00
422  4.2100000000000D+00  0.0000000000000D+00  0.0000000000000D+00
423  4.2200000000000D+00  0.0000000000000D+00  0.0000000000000D+00
424  4.2300000000000D+00  0.0000000000000D+00  0.0000000000000D+00
425  4.2400000000000D+00  0.0000000000000D+00  0.0000000000000D+00
426  4.2500000000000D+00  0.0000000000000D+00  0.0000000000000D+00
427  4.2600000000000D+00  0.0000000000000D+00  0.0000000000000D+00
428  4.2700000000000D+00  0.0000000000000D+00  0.0000000000000D+00
429  4.2800000000000D+00  0.0000000000000D+00  0.0000000000000D+00
430  4.2900000000000D+00  0.0000000000000D+00  0.0000000000000D+00
431  4.3000000000000D+00  0.0000000000000D+00  0.0000000000000D+00
432  4.3100000000000D+00  0.0000000000000D+00  0.0000000000000D+00
433  4.3200000000000D+00  0.0000000000000D+00  0.0000000000000D+00
434  4.3300000000000D+00  0.0000000000000D+00  0.0000000000000D+00
435  4.3400000000000D+00  0.0000000000000D+00  0.0000000000000D+00
436  4.3500000000000D+00  0.0000000000000D+00  0.0000000000000D+00
437  4.3600000000000D+00  0.0000000000000D+00  0.0000000000000D+00
438  4.3700000000000D+00  0.0000000000000D+00  0.0000000000000D+00
439  4.3800000000000D+00  0.0000000000000D+00  0.0000000000000D+00
440  4.3900000000000D+00  0.0000000000000D+00  0.0000000000000D+00
441  4.4000000000000D+00  0.0000000000000D+00  0.0000000000000D+00
442  4.4100000000000D+00  0.0000000000000D+00  0.0000000000000D+00
443  4.4200000000000D+00  0.0000000000000D+00  0.0000000000000D+00