Tl    ONCVPSP-3.3.0  r_core=   2.10510   2.51756   2.00701
81.0000     13.0000      180430    zatom,zion,pspd
8 -116133   2     4   600     0    pspcod,pspxc,lmax,lloc,mmax,r2well
5.99000000  7.00000000  0.00000000    rchrg fchrg qchrg
2     4     3     0    nproj
3     1           extension_switch
4     3     0    nprojso
0                         9.0379659998965D-01  6.3002130216591D+00
1  0.0000000000000D+00 -2.8431146326113D-12 -7.8239636991384D-12
2  1.0000000000000D-02  2.6229534062344D-03  1.7250009943810D-02
3  2.0000000000000D-02  5.2176803536230D-03  3.4485860897923D-02
4  3.0000000000000D-02  7.7560568026434D-03  5.1693474774500D-02
5  4.0000000000000D-02  1.0210163272614D-02  6.8858934844810D-02
6  5.0000000000000D-02  1.2552386422293D-02  8.5968565309249D-02
7  6.0000000000000D-02  1.4755519793881D-02  1.0300900954144D-01
8  7.0000000000000D-02  1.6792863444831D-02  1.1996730657367D-01
9  8.0000000000000D-02  1.8638322194686D-02  1.3683096539869D-01
10  9.0000000000000D-02  2.0266502217649D-02  1.5358803667278D-01
11  1.0000000000000D-01  2.1652805715754D-02  1.7022718141645D-01
12  1.1000000000000D-01  2.2773523412314D-02  1.8673773632279D-01
13  1.2000000000000D-01  2.3605924610825D-02  2.0310977529851D-01
14  1.3000000000000D-01  2.4128344570549D-02  2.1933416687991D-01
15  1.4000000000000D-01  2.4320268956782D-02  2.3540262718448D-01
16  1.5000000000000D-01  2.4162415131079D-02  2.5130776807911D-01
17  1.6000000000000D-01  2.3636810054545D-02  2.6704314026779D-01
18  1.7000000000000D-01  2.2726864585875D-02  2.8260327102459D-01
19  1.8000000000000D-01  2.1417443964594D-02  2.9798369632256D-01
20  1.9000000000000D-01  1.9694934279538D-02  3.1318098713491D-01
21  2.0000000000000D-01  1.7547304732509D-02  3.2819276971181D-01
22  2.1000000000000D-01  1.4964165517364D-02  3.4301773966412D-01
23  2.2000000000000D-01  1.1936821145698D-02  3.5765566971469D-01
24  2.3000000000000D-01  8.4583190613209D-03  3.7210741100740D-01
25  2.4000000000000D-01  4.5234933974413D-03  3.8637488789486D-01
26  2.5000000000000D-01  1.2900374216976D-04  4.0046108615702D-01
27  2.6000000000000D-01 -4.7266312097616D-03  4.1437003463438D-01
28  2.7000000000000D-01 -1.0043005228705D-02  4.2810678029181D-01
29  2.8000000000000D-01 -1.5817801442351D-02  4.4167735676113D-01
30  2.9000000000000D-01 -2.2046774632555D-02  4.5508874644304D-01
31  3.0000000000000D-01 -2.8723739007855D-02  4.6834883628137D-01
32  3.1000000000000D-01 -3.5840561509581D-02  4.8146636735478D-01
33  3.2000000000000D-01 -4.3387160695943D-02  4.9445087846287D-01
34  3.3000000000000D-01 -5.1351511235461D-02  5.0731264391522D-01
35  3.4000000000000D-01 -5.9719654027140D-02  5.2006260576260D-01
36  3.5000000000000D-01 -6.8475711951841D-02  5.3271230073976D-01
37  3.6000000000000D-01 -7.7601911245175D-02  5.4527378221846D-01
38  3.7000000000000D-01 -8.7078608469486D-02  5.5775953749768D-01
39  3.8000000000000D-01 -9.6884323048482D-02  5.7018240078507D-01
40  3.9000000000000D-01 -1.0699577531501D-01  5.8255546224965D-01
41  4.0000000000000D-01 -1.1738793000923D-01  5.9489197355001D-01
42  4.1000000000000D-01 -1.2803404515136D-01  6.0720525026567D-01
43  4.2000000000000D-01 -1.3890572620001D-01  6.1950857168016D-01
44  4.3000000000000D-01 -1.4997298539454D-01  6.3181507838420D-01
45  4.4000000000000D-01 -1.6120430616746D-01  6.4413766818510D-01
46  4.5000000000000D-01 -1.7256671249977D-01  6.5648889082415D-01
47  4.6000000000000D-01 -1.8402584308114D-01  6.6888084201767D-01
48  4.7000000000000D-01 -1.9554603012384D-01  6.8132505734863D-01
49  4.8000000000000D-01 -2.0709038266841D-01  6.9383240654548D-01
50  4.9000000000000D-01 -2.1862087420745D-01  7.0641298869135D-01
51  5.0000000000000D-01 -2.3009843444305D-01  7.1907602891209D-01
52  5.1000000000000D-01 -2.4148304498225D-01  7.3182977709277D-01
53  5.2000000000000D-01 -2.5273383876532D-01  7.4468140917327D-01
54  5.3000000000000D-01 -2.6380920301069D-01  7.5763693156955D-01
55  5.4000000000000D-01 -2.7466688545152D-01  7.7070108926257D-01
56  5.5000000000000D-01 -2.8526410362912D-01  7.8387727808876D-01
57  5.6000000000000D-01 -2.9555765699966D-01  7.9716746175500D-01
58  5.7000000000000D-01 -3.0550404160210D-01  8.1057209408861D-01
59  5.8000000000000D-01 -3.1505956702755D-01  8.2409004701664D-01
60  5.9000000000000D-01 -3.2418047542184D-01  8.3771854475098D-01
61  6.0000000000000D-01 -3.3282306224672D-01  8.5145310463467D-01
62  6.1000000000000D-01 -3.4094379851790D-01  8.6528748508214D-01
63  6.2000000000000D-01 -3.4849945423207D-01  8.7921364102042D-01
64  6.3000000000000D-01 -3.5544722268895D-01  8.9322168721019D-01
65  6.4000000000000D-01 -3.6174484540960D-01  9.0729986979623D-01
66  6.5000000000000D-01 -3.6735073734705D-01  9.2143454640402D-01
67  6.6000000000000D-01 -3.7222411208141D-01  9.3561017506540D-01
68  6.7000000000000D-01 -3.7632510668734D-01  9.4980931222008D-01
69  6.8000000000000D-01 -3.7961490595940D-01  9.6401262000194D-01
70  6.9000000000000D-01 -3.8205586567745D-01  9.7819888297959D-01
71  7.0000000000000D-01 -3.8361163459289D-01  9.9234503447993D-01
72  7.1000000000000D-01 -3.8424727481471D-01  1.0064261925809D+00
73  7.2000000000000D-01 -3.8392938027359D-01  1.0204157058166D+00
74  7.3000000000000D-01 -3.8262619294253D-01  1.0342852085935D+00
75  7.4000000000000D-01 -3.8030771649243D-01  1.0480046862713D+00
76  7.5000000000000D-01 -3.7694582706257D-01  1.0615425498165D+00
77  7.6000000000000D-01 -3.7251438082774D-01  1.0748657198904D+00
78  7.7000000000000D-01 -3.6698931804629D-01  1.0879397201882D+00
79  7.8000000000000D-01 -3.6034876327644D-01  1.1007287797970D+00
80  7.9000000000000D-01 -3.5257312145246D-01  1.1131959442986D+00
81  8.0000000000000D-01 -3.4364516951719D-01  1.1253031952933D+00
82  8.1000000000000D-01 -3.3355014331197D-01  1.1370115779798D+00
83  8.2000000000000D-01 -3.2227581943266D-01  1.1482813363797D+00
84  8.3000000000000D-01 -3.0981259176637D-01  1.1590720557542D+00
85  8.4000000000000D-01 -2.9615354243179D-01  1.1693428117183D+00
86  8.5000000000000D-01 -2.8129450685465D-01  1.1790523255185D+00
87  8.6000000000000D-01 -2.6523413271935D-01  1.1881591249009D+00
88  8.7000000000000D-01 -2.4797393254770D-01  1.1966217099634D+00
89  8.8000000000000D-01 -2.2951832966751D-01  1.2043987233468D+00
90  8.9000000000000D-01 -2.0987469734473D-01  1.2114491240935D+00
91  9.0000000000000D-01 -1.8905339086670D-01  1.2177323644712D+00
92  9.1000000000000D-01 -1.6706777237664D-01  1.2232085690303D+00
93  9.2000000000000D-01 -1.4393422827464D-01  1.2278387151464D+00
94  9.3000000000000D-01 -1.1967217901524D-01  1.2315848142727D+00
95  9.4000000000000D-01 -9.4304081147837D-02  1.2344100931152D+00
96  9.5000000000000D-01 -6.7855421463003D-02  1.2362791739261D+00
97  9.6000000000000D-01 -4.0354703125339D-02  1.2371582531041D+00
98  9.7000000000000D-01 -1.1833423691971D-02  1.2370152772803D+00
99  9.8000000000000D-01  1.7673955065453D-02  1.2358201160687D+00
100  9.9000000000000D-01  4.8130045597083D-02  1.2335447306583D+00
101  1.0000000000000D+00  7.9494581311247D-02  1.2301633374310D+00
102  1.0100000000000D+00  1.1172447163172D-01  1.2256525657954D+00
103  1.0200000000000D+00  1.4477386537423D-01  1.2199916094409D+00
104  1.0300000000000D+00  1.7859422241900D-01  1.2131623702324D+00
105  1.0400000000000D+00  2.1313439363315D-01  1.2051495939840D+00
106  1.0500000000000D+00  2.4834070897295D-01  1.1959409973767D+00
107  1.0600000000000D+00  2.8415707367348D-01  1.1855273853120D+00
108  1.0700000000000D+00  3.2052507240816D-01  1.1739027580209D+00
109  1.0800000000000D+00  3.5738408127658D-01  1.1610644072894D+00
110  1.0900000000000D+00  3.9467138745492D-01  1.1470130011935D+00
111  1.1000000000000D+00  4.3232231631694D-01  1.1317526567848D+00
112  1.1100000000000D+00  4.7027036581245D-01  1.1152910002045D+00
113  1.1200000000000D+00  5.0844734786126D-01  1.0976392137591D+00
114  1.1300000000000D+00  5.4678353649808D-01  1.0788120695389D+00
115  1.1400000000000D+00  5.8520782247790D-01  1.0588279492163D+00
116  1.1500000000000D+00  6.2364787402996D-01  1.0377088497108D+00
117  1.1600000000000D+00  6.6203030342169D-01  1.0154803744709D+00
118  1.1700000000000D+00  7.0028083897079D-01  9.9217171018380D-01
119  1.1800000000000D+00  7.3832450211936D-01  9.6781558878982D-01
120  1.1900000000000D+00  7.7608578916804D-01  9.4244823472258D-01
121  1.2000000000000D+00  8.1348885723720D-01  9.1610929738517D-01
122  1.2100000000000D+00  8.5045771400578D-01  8.8884176892836D-01
123  1.2200000000000D+00  8.8691641075912D-01  8.6069188745957D-01
124  1.2300000000000D+00  9.2278923825842D-01  8.3170902587211D-01
125  1.2400000000000D+00  9.5800092492115D-01  8.0194556657238D-01
126  1.2500000000000D+00  9.9247683678875D-01  7.7145676243812D-01
127  1.2600000000000D+00  1.0261431787470D+00  7.4030058437806D-01
128  1.2700000000000D+00  1.0589271964390D+00  7.0853755598063D-01
129  1.2800000000000D+00  1.0907573783040D+00  6.7623057577778D-01
130  1.2900000000000D+00  1.1215636571705D+00  6.4344472767407D-01
131  1.3000000000000D+00  1.1512776108060D+00  6.1024708022558D-01
132  1.3100000000000D+00  1.1798326608326D+00  5.7670647546512D-01
133  1.3200000000000D+00  1.2071642694055D+00  5.4289330799961D-01
134  1.3300000000000D+00  1.2332101330419D+00  5.0887929523547D-01
135  1.3400000000000D+00  1.2579103729964D+00  4.7473723956874D-01
136  1.3500000000000D+00  1.2812077215646D+00  4.4054078343278D-01
137  1.3600000000000D+00  1.3030477037099D+00  4.0636415819126D-01
138  1.3700000000000D+00  1.3233788134035D+00  3.7228192782214D-01
139  1.3800000000000D+00  1.3421526840702D+00  3.3836872843447D-01
140  1.3900000000000D+00  1.3593242525603D+00  3.0469900468174D-01
141  1.4000000000000D+00  1.3748519160369D+00  2.7134674411192D-01
142  1.4100000000000D+00  1.3886976812267D+00  2.3838521059649D-01
143  1.4200000000000D+00  1.4008273054629D+00  2.0588667792082D-01
144  1.4300000000000D+00  1.4112104289606D+00  1.7392216468207D-01
145  1.4400000000000D+00  1.4198206978375D+00  1.4256117161471D-01
146  1.4500000000000D+00  1.4266358773060D+00  1.1187142249200D-01
147  1.4600000000000D+00  1.4316379546183D+00  8.1918609720775D-02
148  1.4700000000000D+00  1.4348132312512D+00  5.2766145757762D-02
149  1.4800000000000D+00  1.4361524039036D+00  2.4474921470343D-02
150  1.4900000000000D+00  1.4356506339327D+00 -2.8969275199723D-03
151  1.5000000000000D+00  1.4333076047580D+00 -2.9294245348063D-02
152  1.5100000000000D+00  1.4291275670192D+00 -5.4665070384004D-02
153  1.5200000000000D+00  1.4231193710033D+00 -7.8960838493307D-02
154  1.5300000000000D+00  1.4152964862233D+00 -1.0213657430599D-01
155  1.5400000000000D+00  1.4056770077657D+00 -1.2415106942242D-01
156  1.5500000000000D+00  1.3942836492788D+00 -1.4496704677709D-01
157  1.5600000000000D+00  1.3811437224083D+00 -1.6455131033594D-01
158  1.5700000000000D+00  1.3662891024993D+00 -1.8287487927679D-01
159  1.5800000000000D+00  1.3497561805924D+00 -1.9991310615588D-01
160  1.5900000000000D+00  1.3315858014673D+00 -2.1564577810174D-01
161  1.6000000000000D+00  1.3118231879951D+00 -2.3005720092379D-01
162  1.6100000000000D+00  1.2905178514880D+00 -2.4313626504985D-01
163  1.6200000000000D+00  1.2677234885366D+00 -2.5487649359371D-01
164  1.6300000000000D+00  1.2434978639875D+00 -2.6527607137138D-01
165  1.6400000000000D+00  1.2179026807178D+00 -2.7433785549700D-01
166  1.6500000000000D+00  1.1910034359194D+00 -2.8206936645343D-01
167  1.6600000000000D+00  1.1628692646265D+00 -2.8848276044154D-01
168  1.6700000000000D+00  1.1335727703078D+00 -2.9359478207886D-01
169  1.6800000000000D+00  1.1031898433201D+00 -2.9742669840831D-01
170  1.6900000000000D+00  1.0717994671456D+00 -3.0000421344824D-01
171  1.7000000000000D+00  1.0394835132854D+00 -3.0135736443384D-01
172  1.7100000000000D+00  1.0063265248062D+00 -3.0152039910150D-01
173  1.7200000000000D+00  9.7241548950880D-01 -3.0053163539893D-01
174  1.7300000000000D+00  9.3783960276461D-01 -2.9843330303938D-01
175  1.7400000000000D+00  9.0269002109721D-01 -2.9527136856167D-01
176  1.7500000000000D+00  8.6705960658169D-01 -2.9109534332477D-01
177  1.7600000000000D+00  8.3104266325478D-01 -2.8595807641113D-01
178  1.7700000000000D+00  7.9473466562432D-01 -2.7991553184615D-01
179  1.7800000000000D+00  7.5823198056167D-01 -2.7302655238729D-01
180  1.7900000000000D+00  7.2163158272507D-01 -2.6535260935803D-01
181  1.8000000000000D+00  6.8503076478525D-01 -2.5695754083295D-01
182  1.8100000000000D+00  6.4852684277602D-01 -2.4790727800326D-01
183  1.8200000000000D+00  6.1221685770423D-01 -2.3826956176733D-01
184  1.8300000000000D+00  5.7619727397693D-01 -2.2811364991934D-01
185  1.8400000000000D+00  5.4056367561205D-01 -2.1751001659655D-01
186  1.8500000000000D+00  5.0541046099957D-01 -2.0653004491320D-01
187  1.8600000000000D+00  4.7083053704677D-01 -1.9524571406549D-01
188  1.8700000000000D+00  4.3691501359322D-01 -1.8372928227618D-01
189  1.8800000000000D+00  4.0375289890154D-01 -1.7205296663375D-01
190  1.8900000000000D+00  3.7143079706462D-01 -1.6028862136454D-01
191  1.9000000000000D+00  3.4003260827359D-01 -1.4850741566352D-01
192  1.9100000000000D+00  3.0963923255987D-01 -1.3677951240317D-01
193  1.9200000000000D+00  2.8032827818889D-01 -1.2517374921837D-01
194  1.9300000000000D+00  2.5217377511208D-01 -1.1375732289396D-01
195  1.9400000000000D+00  2.2524589293408D-01 -1.0259547844284D-01
196  1.9500000000000D+00  1.9961067204648D-01 -9.1751205349922D-02
197  1.9600000000000D+00  1.7532975946511D-01 -8.1284940478744D-02
198  1.9700000000000D+00  1.5246010780933D-01 -7.1254270871992D-02
199  1.9800000000000D+00  1.3105386571484D-01 -6.1713682461500D-02
200  1.9900000000000D+00  1.1115801957031D-01 -5.2714266339021D-02
201  2.0000000000000D+00  9.2813966101128D-02 -4.4303426427366D-02
202  2.0100000000000D+00  7.6057608896725D-02 -3.6524695590605D-02
203  2.0200000000000D+00  6.0919542940930D-02 -2.9417579150189D-02
204  2.0300000000000D+00  4.7425181325442D-02 -2.3017402335530D-02
205  2.0400000000000D+00  3.5604296010116D-02 -1.7359883021829D-02
206  2.0500000000000D+00  2.5452087882001D-02 -1.2461462971876D-02
207  2.0600000000000D+00  1.6952627512129D-02 -8.3309209087518D-03
208  2.0700000000000D+00  1.0154345597113D-02 -5.0069911657740D-03
209  2.0800000000000D+00  5.1531410686044D-03 -2.5498876143183D-03
210  2.0900000000000D+00  1.9723196588820D-03 -9.8137153172944D-04
211  2.1000000000000D+00  2.8467788208684D-04 -1.4590414755410D-04
212  2.1100000000000D+00 -3.1016259789566D-04  1.5060486095484D-04
213  2.1200000000000D+00 -2.6687890042503D-04  1.3108908764022D-04
214  2.1300000000000D+00 -8.9357514521108D-06  4.4044157833500D-06
215  2.1400000000000D+00  9.2336396041063D-05 -4.5414444955142D-05
216  2.1500000000000D+00  5.5906283206784D-05 -2.7525919410424D-05
217  2.1600000000000D+00 -9.6249355032855D-06  4.7032880945981D-06
218  2.1700000000000D+00 -1.7395689915478D-05  8.5047219075808D-06
219  2.1800000000000D+00 -3.6007962667372D-06  1.7610713492599D-06
220  2.1900000000000D+00  3.1782212086598D-07 -1.4730116194441D-07
221  2.2000000000000D+00  2.8291875881008D-07 -1.3112448496361D-07
222  2.2100000000000D+00  0.0000000000000D+00  0.0000000000000D+00
223  2.2200000000000D+00  0.0000000000000D+00  0.0000000000000D+00
224  2.2300000000000D+00  0.0000000000000D+00  0.0000000000000D+00
225  2.2400000000000D+00  0.0000000000000D+00  0.0000000000000D+00
226  2.2500000000000D+00  0.0000000000000D+00  0.0000000000000D+00
227  2.2600000000000D+00  0.0000000000000D+00  0.0000000000000D+00
228  2.2700000000000D+00  0.0000000000000D+00  0.0000000000000D+00
229  2.2800000000000D+00  0.0000000000000D+00  0.0000000000000D+00
230  2.2900000000000D+00  0.0000000000000D+00  0.0000000000000D+00
231  2.3000000000000D+00  0.0000000000000D+00  0.0000000000000D+00
232  2.3100000000000D+00  0.0000000000000D+00  0.0000000000000D+00
233  2.3200000000000D+00  0.0000000000000D+00  0.0000000000000D+00
234  2.3300000000000D+00  0.0000000000000D+00  0.0000000000000D+00
235  2.3400000000000D+00  0.0000000000000D+00  0.0000000000000D+00
236  2.3500000000000D+00  0.0000000000000D+00  0.0000000000000D+00
237  2.3600000000000D+00  0.0000000000000D+00  0.0000000000000D+00
238  2.3700000000000D+00  0.0000000000000D+00  0.0000000000000D+00
239  2.3800000000000D+00  0.0000000000000D+00  0.0000000000000D+00
240  2.3900000000000D+00  0.0000000000000D+00  0.0000000000000D+00
241  2.4000000000000D+00  0.0000000000000D+00  0.0000000000000D+00
242  2.4100000000000D+00  0.0000000000000D+00  0.0000000000000D+00
243  2.4200000000000D+00  0.0000000000000D+00  0.0000000000000D+00
244  2.4300000000000D+00  0.0000000000000D+00  0.0000000000000D+00
245  2.4400000000000D+00  0.0000000000000D+00  0.0000000000000D+00
246  2.4500000000000D+00  0.0000000000000D+00  0.0000000000000D+00
247  2.4600000000000D+00  0.0000000000000D+00  0.0000000000000D+00
248  2.4700000000000D+00  0.0000000000000D+00  0.0000000000000D+00
249  2.4800000000000D+00  0.0000000000000D+00  0.0000000000000D+00
250  2.4900000000000D+00  0.0000000000000D+00  0.0000000000000D+00
251  2.5000000000000D+00  0.0000000000000D+00  0.0000000000000D+00
252  2.5100000000000D+00  0.0000000000000D+00  0.0000000000000D+00
253  2.5200000000000D+00  0.0000000000000D+00  0.0000000000000D+00
254  2.5300000000000D+00  0.0000000000000D+00  0.0000000000000D+00
255  2.5400000000000D+00  0.0000000000000D+00  0.0000000000000D+00
256  2.5500000000000D+00  0.0000000000000D+00  0.0000000000000D+00
257  2.5600000000000D+00  0.0000000000000D+00  0.0000000000000D+00
258  2.5700000000000D+00  0.0000000000000D+00  0.0000000000000D+00
259  2.5800000000000D+00  0.0000000000000D+00  0.0000000000000D+00
260  2.5900000000000D+00  0.0000000000000D+00  0.0000000000000D+00
261  2.6000000000000D+00  0.0000000000000D+00  0.0000000000000D+00
262  2.6100000000000D+00  0.0000000000000D+00  0.0000000000000D+00
263  2.6200000000000D+00  0.0000000000000D+00  0.0000000000000D+00
264  2.6300000000000D+00  0.0000000000000D+00  0.0000000000000D+00
265  2.6400000000000D+00  0.0000000000000D+00  0.0000000000000D+00
266  2.6500000000000D+00  0.0000000000000D+00  0.0000000000000D+00
267  2.6600000000000D+00  0.0000000000000D+00  0.0000000000000D+00
268  2.6700000000000D+00  0.0000000000000D+00  0.0000000000000D+00
269  2.6800000000000D+00  0.0000000000000D+00  0.0000000000000D+00
270  2.6900000000000D+00  0.0000000000000D+00  0.0000000000000D+00
271  2.7000000000000D+00  0.0000000000000D+00  0.0000000000000D+00
272  2.7100000000000D+00  0.0000000000000D+00  0.0000000000000D+00
273  2.7200000000000D+00  0.0000000000000D+00  0.0000000000000D+00
274  2.7300000000000D+00  0.0000000000000D+00  0.0000000000000D+00
275  2.7400000000000D+00  0.0000000000000D+00  0.0000000000000D+00
276  2.7500000000000D+00  0.0000000000000D+00  0.0000000000000D+00
277  2.7600000000000D+00  0.0000000000000D+00  0.0000000000000D+00
278  2.7700000000000D+00  0.0000000000000D+00  0.0000000000000D+00
279  2.7800000000000D+00  0.0000000000000D+00  0.0000000000000D+00
280  2.7900000000000D+00  0.0000000000000D+00  0.0000000000000D+00
281  2.8000000000000D+00  0.0000000000000D+00  0.0000000000000D+00
282  2.8100000000000D+00  0.0000000000000D+00  0.0000000000000D+00
283  2.8200000000000D+00  0.0000000000000D+00  0.0000000000000D+00
284  2.8300000000000D+00  0.0000000000000D+00  0.0000000000000D+00
285  2.8400000000000D+00  0.0000000000000D+00  0.0000000000000D+00
286  2.8500000000000D+00  0.0000000000000D+00  0.0000000000000D+00
287  2.8600000000000D+00  0.0000000000000D+00  0.0000000000000D+00
288  2.8700000000000D+00  0.0000000000000D+00  0.0000000000000D+00
289  2.8800000000000D+00  0.0000000000000D+00  0.0000000000000D+00
290  2.8900000000000D+00  0.0000000000000D+00  0.0000000000000D+00
291  2.9000000000000D+00  0.0000000000000D+00  0.0000000000000D+00
292  2.9100000000000D+00  0.0000000000000D+00  0.0000000000000D+00
293  2.9200000000000D+00  0.0000000000000D+00  0.0000000000000D+00
294  2.9300000000000D+00  0.0000000000000D+00  0.0000000000000D+00
295  2.9400000000000D+00  0.0000000000000D+00  0.0000000000000D+00
296  2.9500000000000D+00  0.0000000000000D+00  0.0000000000000D+00
297  2.9600000000000D+00  0.0000000000000D+00  0.0000000000000D+00
298  2.9700000000000D+00  0.0000000000000D+00  0.0000000000000D+00
299  2.9800000000000D+00  0.0000000000000D+00  0.0000000000000D+00
300  2.9900000000000D+00  0.0000000000000D+00  0.0000000000000D+00
301  3.0000000000000D+00  0.0000000000000D+00  0.0000000000000D+00
302  3.0100000000000D+00  0.0000000000000D+00  0.0000000000000D+00
303  3.0200000000000D+00  0.0000000000000D+00  0.0000000000000D+00
304  3.0300000000000D+00  0.0000000000000D+00  0.0000000000000D+00
305  3.0400000000000D+00  0.0000000000000D+00  0.0000000000000D+00
306  3.0500000000000D+00  0.0000000000000D+00  0.0000000000000D+00
307  3.0600000000000D+00  0.0000000000000D+00  0.0000000000000D+00
308  3.0700000000000D+00  0.0000000000000D+00  0.0000000000000D+00
309  3.0800000000000D+00  0.0000000000000D+00  0.0000000000000D+00
310  3.0900000000000D+00  0.0000000000000D+00  0.0000000000000D+00
311  3.1000000000000D+00  0.0000000000000D+00  0.0000000000000D+00
312  3.1100000000000D+00  0.0000000000000D+00  0.0000000000000D+00
313  3.1200000000000D+00  0.0000000000000D+00  0.0000000000000D+00
314  3.1300000000000D+00  0.0000000000000D+00  0.0000000000000D+00
315  3.1400000000000D+00  0.0000000000000D+00  0.0000000000000D+00
316  3.1500000000000D+00  0.0000000000000D+00  0.0000000000000D+00
317  3.1600000000000D+00  0.0000000000000D+00  0.0000000000000D+00
318  3.1700000000000D+00  0.0000000000000D+00  0.0000000000000D+00
319  3.1800000000000D+00  0.0000000000000D+00  0.0000000000000D+00
320  3.1900000000000D+00  0.0000000000000D+00  0.0000000000000D+00
321  3.2000000000000D+00  0.0000000000000D+00  0.0000000000000D+00
322  3.2100000000000D+00  0.0000000000000D+00  0.0000000000000D+00
323  3.2200000000000D+00  0.0000000000000D+00  0.0000000000000D+00
324  3.2300000000000D+00  0.0000000000000D+00  0.0000000000000D+00
325  3.2400000000000D+00  0.0000000000000D+00  0.0000000000000D+00
326  3.2500000000000D+00  0.0000000000000D+00  0.0000000000000D+00
327  3.2600000000000D+00  0.0000000000000D+00  0.0000000000000D+00
328  3.2700000000000D+00  0.0000000000000D+00  0.0000000000000D+00
329  3.2800000000000D+00  0.0000000000000D+00  0.0000000000000D+00
330  3.2900000000000D+00  0.0000000000000D+00  0.0000000000000D+00
331  3.3000000000000D+00  0.0000000000000D+00  0.0000000000000D+00
332  3.3100000000000D+00  0.0000000000000D+00  0.0000000000000D+00
333  3.3200000000000D+00  0.0000000000000D+00  0.0000000000000D+00
334  3.3300000000000D+00  0.0000000000000D+00  0.0000000000000D+00
335  3.3400000000000D+00  0.0000000000000D+00  0.0000000000000D+00
336  3.3500000000000D+00  0.0000000000000D+00  0.0000000000000D+00
337  3.3600000000000D+00  0.0000000000000D+00  0.0000000000000D+00
338  3.3700000000000D+00  0.0000000000000D+00  0.0000000000000D+00
339  3.3800000000000D+00  0.0000000000000D+00  0.0000000000000D+00
340  3.3900000000000D+00  0.0000000000000D+00  0.0000000000000D+00
341  3.4000000000000D+00  0.0000000000000D+00  0.0000000000000D+00
342  3.4100000000000D+00  0.0000000000000D+00  0.0000000000000D+00
343  3.4200000000000D+00  0.0000000000000D+00  0.0000000000000D+00
344  3.4300000000000D+00  0.0000000000000D+00  0.0000000000000D+00
345  3.4400000000000D+00  0.0000000000000D+00  0.0000000000000D+00
346  3.4500000000000D+00  0.0000000000000D+00  0.0000000000000D+00
347  3.4600000000000D+00  0.0000000000000D+00  0.0000000000000D+00
348  3.4700000000000D+00  0.0000000000000D+00  0.0000000000000D+00
349  3.4800000000000D+00  0.0000000000000D+00  0.0000000000000D+00
350  3.4900000000000D+00  0.0000000000000D+00  0.0000000000000D+00
351  3.5000000000000D+00  0.0000000000000D+00  0.0000000000000D+00
352  3.5100000000000D+00  0.0000000000000D+00  0.0000000000000D+00
353  3.5200000000000D+00  0.0000000000000D+00  0.0000000000000D+00
354  3.5300000000000D+00  0.0000000000000D+00  0.0000000000000D+00
355  3.5400000000000D+00  0.0000000000000D+00  0.0000000000000D+00
356  3.5500000000000D+00  0.0000000000000D+00  0.0000000000000D+00
357  3.5600000000000D+00  0.0000000000000D+00  0.0000000000000D+00
358  3.5700000000000D+00  0.0000000000000D+00  0.0000000000000D+00
359  3.5800000000000D+00  0.0000000000000D+00  0.0000000000000D+00
360  3.5900000000000D+00  0.0000000000000D+00  0.0000000000000D+00
361  3.6000000000000D+00  0.0000000000000D+00  0.0000000000000D+00
362  3.6100000000000D+00  0.0000000000000D+00  0.0000000000000D+00
363  3.6200000000000D+00  0.0000000000000D+00  0.0000000000000D+00
364  3.6300000000000D+00  0.0000000000000D+00  0.0000000000000D+00
365  3.6400000000000D+00  0.0000000000000D+00  0.0000000000000D+00
366  3.6500000000000D+00  0.0000000000000D+00  0.0000000000000D+00
367  3.6600000000000D+00  0.0000000000000D+00  0.0000000000000D+00
368  3.6700000000000D+00  0.0000000000000D+00  0.0000000000000D+00
369  3.6800000000000D+00  0.0000000000000D+00  0.0000000000000D+00
370  3.6900000000000D+00  0.0000000000000D+00  0.0000000000000D+00
371  3.7000000000000D+00  0.0000000000000D+00  0.0000000000000D+00
372  3.7100000000000D+00  0.0000000000000D+00  0.0000000000000D+00
373  3.7200000000000D+00  0.0000000000000D+00  0.0000000000000D+00
374  3.7300000000000D+00  0.0000000000000D+00  0.0000000000000D+00
375  3.7400000000000D+00  0.0000000000000D+00  0.0000000000000D+00
376  3.7500000000000D+00  0.0000000000000D+00  0.0000000000000D+00
377  3.7600000000000D+00  0.0000000000000D+00  0.0000000000000D+00
378  3.7700000000000D+00  0.0000000000000D+00  0.0000000000000D+00
379  3.7800000000000D+00  0.0000000000000D+00  0.0000000000000D+00
380  3.7900000000000D+00  0.0000000000000D+00  0.0000000000000D+00
381  3.8000000000000D+00  0.0000000000000D+00  0.0000000000000D+00
382  3.8100000000000D+00  0.0000000000000D+00  0.0000000000000D+00
383  3.8200000000000D+00  0.0000000000000D+00  0.0000000000000D+00
384  3.8300000000000D+00  0.0000000000000D+00  0.0000000000000D+00
385  3.8400000000000D+00  0.0000000000000D+00  0.0000000000000D+00
386  3.8500000000000D+00  0.0000000000000D+00  0.0000000000000D+00
387  3.8600000000000D+00  0.0000000000000D+00  0.0000000000000D+00
388  3.8700000000000D+00  0.0000000000000D+00  0.0000000000000D+00
389  3.8800000000000D+00  0.0000000000000D+00  0.0000000000000D+00
390  3.8900000000000D+00  0.0000000000000D+00  0.0000000000000D+00
391  3.9000000000000D+00  0.0000000000000D+00  0.0000000000000D+00
392  3.9100000000000D+00  0.0000000000000D+00  0.0000000000000D+00
393  3.9200000000000D+00  0.0000000000000D+00  0.0000000000000D+00
394  3.9300000000000D+00  0.0000000000000D+00  0.0000000000000D+00
395  3.9400000000000D+00  0.0000000000000D+00  0.0000000000000D+00
396  3.9500000000000D+00  0.0000000000000D+00  0.0000000000000D+00
397  3.9600000000000D+00  0.0000000000000D+00  0.0000000000000D+00
398  3.9700000000000D+00  0.0000000000000D+00  0.0000000000000D+00
399  3.9800000000000D+00  0.0000000000000D+00  0.0000000000000D+00
400  3.9900000000000D+00  0.0000000000000D+00  0.0000000000000D+00
401  4.0000000000000D+00  0.0000000000000D+00  0.0000000000000D+00
402  4.0100000000000D+00  0.0000000000000D+00  0.0000000000000D+00
403  4.0200000000000D+00  0.0000000000000D+00  0.0000000000000D+00
404  4.0300000000000D+00  0.0000000000000D+00  0.0000000000000D+00
405  4.0400000000000D+00  0.0000000000000D+00  0.0000000000000D+00
406  4.0500000000000D+00  0.0000000000000D+00  0.0000000000000D+00
407  4.0600000000000D+00  0.0000000000000D+00  0.0000000000000D+00
408  4.0700000000000D+00  0.0000000000000D+00  0.0000000000000D+00
409  4.0800000000000D+00  0.0000000000000D+00  0.0000000000000D+00
410  4.0900000000000D+00  0.0000000000000D+00  0.0000000000000D+00
411  4.1000000000000D+00  0.0000000000000D+00  0.0000000000000D+00
412  4.1100000000000D+00  0.0000000000000D+00  0.0000000000000D+00
413  4.1200000000000D+00  0.0000000000000D+00  0.0000000000000D+00
414  4.1300000000000D+00  0.0000000000000D+00  0.0000000000000D+00
415  4.1400000000000D+00  0.0000000000000D+00  0.0000000000000D+00
416  4.1500000000000D+00  0.0000000000000D+00  0.0000000000000D+00
417  4.1600000000000D+00  0.0000000000000D+00  0.0000000000000D+00
418  4.1700000000000D+00  0.0000000000000D+00  0.0000000000000D+00
419  4.1800000000000D+00  0.0000000000000D+00  0.0000000000000D+00
420  4.1900000000000D+00  0.0000000000000D+00  0.0000000000000D+00
421  4.2000000000000D+00  0.0000000000000D+00  0.0000000000000D+00
422  4.2100000000000D+00  0.0000000000000D+00  0.0000000000000D+00
423  4.2200000000000D+00  0.0000000000000D+00  0.0000000000000D+00
424  4.2300000000000D+00  0.0000000000000D+00  0.0000000000000D+00
425  4.2400000000000D+00  0.0000000000000D+00  0.0000000000000D+00
426  4.2500000000000D+00  0.0000000000000D+00  0.0000000000000D+00
427  4.2600000000000D+00  0.0000000000000D+00  0.0000000000000D+00
428  4.2700000000000D+00  0.0000000000000D+00  0.0000000000000D+00
429  4.2800000000000D+00  0.0000000000000D+00  0.0000000000000D+00
430  4.2900000000000D+00  0.0000000000000D+00  0.0000000000000D+00
431  4.3000000000000D+00  0.0000000000000D+00  0.0000000000000D+00
432  4.3100000000000D+00  0.0000000000000D+00  0.0000000000000D+00
433  4.3200000000000D+00  0.0000000000000D+00  0.0000000000000D+00
434  4.3300000000000D+00  0.0000000000000D+00  0.0000000000000D+00
435  4.3400000000000D+00  0.0000000000000D+00  0.0000000000000D+00
436  4.3500000000000D+00  0.0000000000000D+00  0.0000000000000D+00
437  4.3600000000000D+00  0.0000000000000D+00  0.0000000000000D+00
438  4.3700000000000D+00  0.0000000000000D+00  0.0000000000000D+00
439  4.3800000000000D+00  0.0000000000000D+00  0.0000000000000D+00
440  4.3900000000000D+00  0.0000000000000D+00  0.0000000000000D+00
441  4.4000000000000D+00  0.0000000000000D+00  0.0000000000000D+00
442  4.4100000000000D+00  0.0000000000000D+00  0.0000000000000D+00
443  4.4200000000000D+00  0.0000000000000D+00  0.0000000000000D+00