V     ONCVPSP-3.3.0  r_core=   1.31479   1.31479   1.66904
23.0000     13.0000      180430    zatom,zion,pspd
8 -116133   2     4   600     0    pspcod,pspxc,lmax,lloc,mmax,r2well
5.99000000  5.00000000  0.00000000    rchrg fchrg qchrg
2     3     2     0    nproj
3     1           extension_switch
4     3     0    nprojso
0                         1.3926532404182D+00  1.1840329195052D+01
1  0.0000000000000D+00  5.5246066610337D-09 -1.6661881874214D-09
2  1.0000000000000D-02 -4.4591708038028D-02  9.1348616621898D-02
3  2.0000000000000D-02 -8.8736181196072D-02  1.8239448509881D-01
4  3.0000000000000D-02 -1.3199142725014D-01  2.7283686531912D-01
5  4.0000000000000D-02 -1.7392585623649D-01  3.6237900732895D-01
6  5.0000000000000D-02 -2.1412327539554D-01  4.5073008207410D-01
7  6.0000000000000D-02 -2.5218764070796D-01  5.3760703614861D-01
8  7.0000000000000D-02 -2.8774749050492D-01  6.2273634721524D-01
9  8.0000000000000D-02 -3.2045999215941D-01  7.0585565842896D-01
10  9.0000000000000D-02 -3.5001453958891D-01  7.8671527222240D-01
11  1.0000000000000D-01 -3.7613584710596D-01  8.6507948616606D-01
12  1.1000000000000D-01 -3.9858649390547D-01  9.4072775625498D-01
13  1.2000000000000D-01 -4.1716888302417D-01  1.0134556758518D+00
14  1.3000000000000D-01 -4.3172658878155D-01  1.0830757615824D+00
15  1.4000000000000D-01 -4.4214507733520D-01  1.1494180406833D+00
16  1.5000000000000D-01 -4.4835179587076D-01  1.2123304375791D+00
17  1.6000000000000D-01 -4.5031563690663D-01  1.2716789607712D+00
18  1.7000000000000D-01 -4.4804579503311D-01  1.3273476943849D+00
19  1.8000000000000D-01 -4.4159004393361D-01  1.3792386018910D+00
20  1.9000000000000D-01 -4.3103247156512D-01  1.4272711525385D+00
21  2.0000000000000D-01 -4.1649072072841D-01  1.4713817838519D+00
22  2.1000000000000D-01 -3.9811279076718D-01  1.5115232161057D+00
23  2.2000000000000D-01 -3.7607346364742D-01  1.5476636369504D+00
24  2.3000000000000D-01 -3.5057042404615D-01  1.5797857762839D+00
25  2.4000000000000D-01 -3.2182014820673D-01  1.6078858930054D+00
26  2.5000000000000D-01 -2.9005364009882D-01  1.6319726964274D+00
27  2.6000000000000D-01 -2.5551209578358D-01  1.6520662258348D+00
28  2.7000000000000D-01 -2.1844257778089D-01  1.6681967119550D+00
29  2.8000000000000D-01 -1.7909378064205D-01  1.6804034439286D+00
30  2.9000000000000D-01 -1.3771196685416D-01  1.6887336647582D+00
31  3.0000000000000D-01 -9.4537148669517D-02  1.6932415171601D+00
32  3.1000000000000D-01 -4.9799586522750D-02  1.6939870602812D+00
33  3.2000000000000D-01 -3.7166684509007D-03  1.6910353758870D+00
34  3.3000000000000D-01  4.3509772528341D-02  1.6844557804101D+00
35  3.4000000000000D-01  9.1695654667957D-02  1.6743211567193D+00
36  3.5000000000000D-01  1.4067631844045D-01  1.6607074166612D+00
37  3.6000000000000D-01  1.9030764350115D-01  1.6436931023943D+00
38  3.7000000000000D-01  2.4046659382322D-01  1.6233591313432D+00
39  3.8000000000000D-01  2.9105118439628D-01  1.5997886862896D+00
40  3.9000000000000D-01  3.4197987431162D-01  1.5730672487647D+00
41  4.0000000000000D-01  3.9319040247506D-01  1.5432827705679D+00
42  4.1000000000000D-01  4.4463809338401D-01  1.5105259749748D+00
43  4.2000000000000D-01  4.9629367117594D-01  1.4748907760750D+00
44  4.3000000000000D-01  5.4814063029257D-01  1.4364748017626D+00
45  4.4000000000000D-01  6.0017222042382D-01  1.3953800032361D+00
46  4.5000000000000D-01  6.5238811171122D-01  1.3517133315164D+00
47  4.6000000000000D-01  7.0479081334468D-01  1.3055874595009D+00
48  4.7000000000000D-01  7.5738192453103D-01  1.2571215264817D+00
49  4.8000000000000D-01  8.1015830122726D-01  1.2064418809092D+00
50  4.9000000000000D-01  8.6310822491848D-01  1.1536827964986D+00
51  5.0000000000000D-01  9.1620766100633D-01  1.0989871365791D+00
52  5.1000000000000D-01  9.6941669401735D-01  1.0425069418902D+00
53  5.2000000000000D-01  1.0226762248248D+00  9.8440391782876D-01
54  5.3000000000000D-01  1.0759050114227D+00  9.2484979844891D-01
55  5.4000000000000D-01  1.1289971295302D+00  8.6402656628981D-01
56  5.5000000000000D-01  1.1818199225303D+00  8.0212650933584D-01
57  5.6000000000000D-01  1.2342125020478D+00  7.3935209905907D-01
58  5.7000000000000D-01  1.2859848509681D+00  6.7591567652606D-01
59  5.8000000000000D-01  1.3369175700991D+00  6.1203893689935D-01
60  5.9000000000000D-01  1.3867622980512D+00  5.4795220630663D-01
61  6.0000000000000D-01  1.4352428216115D+00  4.8389350887857D-01
62  6.1000000000000D-01  1.4820568809434D+00  4.2010742576054D-01
63  6.2000000000000D-01  1.5268786607623D+00  3.5684375195450D-01
64  6.3000000000000D-01  1.5693619453192D+00  2.9435596091904D-01
65  6.4000000000000D-01  1.6091439018495D+00  2.3289949085660D-01
66  6.5000000000000D-01  1.6458494444454D+00  1.7272987044900D-01
67  6.6000000000000D-01  1.6790961181202D+00  1.1410070545192D-01
68  6.7000000000000D-01  1.7084994316008D+00  5.7261550891845D-02
69  6.8000000000000D-01  1.7336785572147D+00  2.4556965918051D-03
70  6.9000000000000D-01  1.7542623072951D+00 -5.0082103665168D-02
71  7.0000000000000D-01  1.7698952891082D+00 -1.0012792693084D-01
72  7.1000000000000D-01  1.7802441344720D+00 -1.4747096585442D-01
73  7.2000000000000D-01  1.7850036961651D+00 -1.9191576839361D-01
74  7.3000000000000D-01  1.7839031009858D+00 -2.3328439700778D-01
75  7.4000000000000D-01  1.7767115490267D+00 -2.7141847202905D-01
76  7.5000000000000D-01  1.7632437503775D+00 -3.0618106467913D-01
77  7.6000000000000D-01  1.7433648940802D+00 -3.3745840658385D-01
78  7.7000000000000D-01  1.7169950497051D+00 -3.6516138462373D-01
79  7.8000000000000D-01  1.6841129093061D+00 -3.8922679251431D-01
80  7.9000000000000D-01  1.6447587866677D+00 -4.0961831361132D-01
81  8.0000000000000D-01  1.5990368015534D+00 -4.2632721304050D-01
82  8.1000000000000D-01  1.5471161888884D+00 -4.3937272128838D-01
83  8.2000000000000D-01  1.4892316863191D+00 -4.4880209581902D-01
84  8.3000000000000D-01  1.4256829681439D+00 -4.5469035201859D-01
85  8.4000000000000D-01  1.3568331089696D+00 -4.5713965974340D-01
86  8.5000000000000D-01  1.2831060763543D+00 -4.5627840687474D-01
87  8.6000000000000D-01  1.2049832678870D+00 -4.5225993648059D-01
88  8.7000000000000D-01  1.1229991243391D+00 -4.4526096936124D-01
89  8.8000000000000D-01  1.0377358664274D+00 -4.3547972882444D-01
90  8.9000000000000D-01  9.4981741806373D-01 -4.2313378940808D-01
91  9.0000000000000D-01  8.5990259346421D-01 -4.0845767585675D-01
92  9.1000000000000D-01  7.6867763888064D-01 -3.9170024288283D-01
93  9.2000000000000D-01  6.7684823175514D-01 -3.7312187002309D-01
94  9.3000000000000D-01  5.8513105055431D-01 -3.5299150917006D-01
95  9.4000000000000D-01  4.9424503722094D-01 -3.3158362505156D-01
96  9.5000000000000D-01  4.0490248087911D-01 -3.0917507098927D-01
97  9.6000000000000D-01  3.1780005605417D-01 -2.8604194366098D-01
98  9.7000000000000D-01  2.3360995111418D-01 -2.6245646128656D-01
99  9.8000000000000D-01  1.5297122273861D-01 -2.3868390960791D-01
100  9.9000000000000D-01  7.6481510084309D-02 -2.1497969927088D-01
101  1.0000000000000D+00  4.6892378612954D-03 -1.9158657671892D-01
102  1.0100000000000D+00 -6.1913569112488D-02 -1.6873202851717D-01
103  1.0200000000000D+00 -1.2289774641154D-01 -1.4662591605543D-01
104  1.0300000000000D+00 -1.7790262248688D-01 -1.2545837420506D-01
105  1.0400000000000D+00 -2.2664073312713D-01 -1.0539800328360D-01
106  1.0500000000000D+00 -2.6890154231449D-01 -8.6590379035291D-02
107  1.0600000000000D+00 -3.0455410946306D-01 -6.9156900332762D-02
108  1.0700000000000D+00 -3.3354866030656D-01 -5.3193988762703D-02
109  1.0800000000000D+00 -3.5591703666714D-01 -3.8772648505399D-02
110  1.0900000000000D+00 -3.7177201759008D-01 -2.5938389398266D-02
111  1.1000000000000D+00 -3.8130552527484D-01 -1.4711509380342D-02
112  1.1100000000000D+00 -3.8478574603967D-01 -5.0877271490625D-03
113  1.1200000000000D+00 -3.8255321684601D-01  2.9608506139883D-03
114  1.1300000000000D+00 -3.7501594251570D-01  9.4844477507706D-03
115  1.1400000000000D+00 -3.6264362917957D-01  1.4554049676706D-02
116  1.1500000000000D+00 -3.4596113280130D-01  1.8259578023172D-02
117  1.1600000000000D+00 -3.2554123689930D-01  2.0707844795766D-02
118  1.1700000000000D+00 -3.0199688891534D-01  2.2020326551611D-02
119  1.1800000000000D+00 -2.7597299472765D-01  2.2330791879155D-02
120  1.1900000000000D+00 -2.4813807859497D-01  2.1782871479425D-02
121  1.2000000000000D+00 -2.1917515172751D-01  2.0527400667740D-02
122  1.2100000000000D+00 -1.8977501867354D-01  1.8720408954065D-02
123  1.2200000000000D+00 -1.6062369324722D-01  1.6519537849507D-02
124  1.2300000000000D+00 -1.3238394314858D-01  1.4078884418040D-02
125  1.2400000000000D+00 -1.0567649351328D-01  1.1543621946074D-02
126  1.2500000000000D+00 -8.1068047644011D-02  9.0464144513899D-03
127  1.2600000000000D+00 -5.9064979297988D-02  6.7053362731045D-03
128  1.2700000000000D+00 -4.0108583119693D-02  4.6218422137160D-03
129  1.2800000000000D+00 -2.4562736993682D-02  2.8780640631171D-03
130  1.2900000000000D+00 -1.2630062133575D-02  1.5245739963314D-03
131  1.3000000000000D+00 -4.7606027169944D-03  6.3537861772935D-04
132  1.3100000000000D+00 -1.0389284996548D-03  2.2430075827830D-04
133  1.3200000000000D+00  2.1883089224034D-05  6.6778356501753D-05
134  1.3300000000000D+00  8.9473781080315D-06  1.8810981960726D-06
135  1.3400000000000D+00 -4.0222154643565D-05 -4.8241665891960D-06
136  1.3500000000000D+00  4.1390736277283D-06  1.2248325230104D-06
137  1.3600000000000D+00  3.1262593748009D-06  7.2268949544300D-07
138  1.3700000000000D+00  8.9659912221144D-07 -3.8163345206771D-07
139  1.3800000000000D+00  0.0000000000000D+00  0.0000000000000D+00
140  1.3900000000000D+00  0.0000000000000D+00  0.0000000000000D+00
141  1.4000000000000D+00  0.0000000000000D+00  0.0000000000000D+00
142  1.4100000000000D+00  0.0000000000000D+00  0.0000000000000D+00
143  1.4200000000000D+00  0.0000000000000D+00  0.0000000000000D+00
144  1.4300000000000D+00  0.0000000000000D+00  0.0000000000000D+00
145  1.4400000000000D+00  0.0000000000000D+00  0.0000000000000D+00
146  1.4500000000000D+00  0.0000000000000D+00  0.0000000000000D+00
147  1.4600000000000D+00  0.0000000000000D+00  0.0000000000000D+00
148  1.4700000000000D+00  0.0000000000000D+00  0.0000000000000D+00
149  1.4800000000000D+00  0.0000000000000D+00  0.0000000000000D+00
150  1.4900000000000D+00  0.0000000000000D+00  0.0000000000000D+00
151  1.5000000000000D+00  0.0000000000000D+00  0.0000000000000D+00
152  1.5100000000000D+00  0.0000000000000D+00  0.0000000000000D+00
153  1.5200000000000D+00  0.0000000000000D+00  0.0000000000000D+00
154  1.5300000000000D+00  0.0000000000000D+00  0.0000000000000D+00
155  1.5400000000000D+00  0.0000000000000D+00  0.0000000000000D+00
156  1.5500000000000D+00  0.0000000000000D+00  0.0000000000000D+00
157  1.5600000000000D+00  0.0000000000000D+00  0.0000000000000D+00
158  1.5700000000000D+00  0.0000000000000D+00  0.0000000000000D+00
159  1.5800000000000D+00  0.0000000000000D+00  0.0000000000000D+00
160  1.5900000000000D+00  0.0000000000000D+00  0.0000000000000D+00
161  1.6000000000000D+00  0.0000000000000D+00  0.0000000000000D+00
162  1.6100000000000D+00  0.0000000000000D+00  0.0000000000000D+00
163  1.6200000000000D+00  0.0000000000000D+00  0.0000000000000D+00
164  1.6300000000000D+00  0.0000000000000D+00  0.0000000000000D+00
165  1.6400000000000D+00  0.0000000000000D+00  0.0000000000000D+00
166  1.6500000000000D+00  0.0000000000000D+00  0.0000000000000D+00
167  1.6600000000000D+00  0.0000000000000D+00  0.0000000000000D+00
168  1.6700000000000D+00  0.0000000000000D+00  0.0000000000000D+00
169  1.6800000000000D+00  0.0000000000000D+00  0.0000000000000D+00
170  1.6900000000000D+00  0.0000000000000D+00  0.0000000000000D+00
171  1.7000000000000D+00  0.0000000000000D+00  0.0000000000000D+00
172  1.7100000000000D+00  0.0000000000000D+00  0.0000000000000D+00
173  1.7200000000000D+00  0.0000000000000D+00  0.0000000000000D+00
174  1.7300000000000D+00  0.0000000000000D+00  0.0000000000000D+00
175  1.7400000000000D+00  0.0000000000000D+00  0.0000000000000D+00
176  1.7500000000000D+00  0.0000000000000D+00  0.0000000000000D+00
177  1.7600000000000D+00  0.0000000000000D+00  0.0000000000000D+00
178  1.7700000000000D+00  0.0000000000000D+00  0.0000000000000D+00
179  1.7800000000000D+00  0.0000000000000D+00  0.0000000000000D+00
180  1.7900000000000D+00  0.0000000000000D+00  0.0000000000000D+00
181  1.8000000000000D+00  0.0000000000000D+00  0.0000000000000D+00
182  1.8100000000000D+00  0.0000000000000D+00  0.0000000000000D+00
183  1.8200000000000D+00  0.0000000000000D+00  0.0000000000000D+00
184  1.8300000000000D+00  0.0000000000000D+00  0.0000000000000D+00
185  1.8400000000000D+00  0.0000000000000D+00  0.0000000000000D+00
186  1.8500000000000D+00  0.0000000000000D+00  0.0000000000000D+00
187  1.8600000000000D+00  0.0000000000000D+00  0.0000000000000D+00
188  1.8700000000000D+00  0.0000000000000D+00  0.0000000000000D+00
189  1.8800000000000D+00  0.0000000000000D+00  0.0000000000000D+00
190  1.8900000000000D+00  0.0000000000000D+00  0.0000000000000D+00
191  1.9000000000000D+00  0.0000000000000D+00  0.0000000000000D+00
192  1.9100000000000D+00  0.0000000000000D+00  0.0000000000000D+00
193  1.9200000000000D+00  0.0000000000000D+00  0.0000000000000D+00
194  1.9300000000000D+00  0.0000000000000D+00  0.0000000000000D+00
195  1.9400000000000D+00  0.0000000000000D+00  0.0000000000000D+00
196  1.9500000000000D+00  0.0000000000000D+00  0.0000000000000D+00
197  1.9600000000000D+00  0.0000000000000D+00  0.0000000000000D+00
198  1.9700000000000D+00  0.0000000000000D+00  0.0000000000000D+00
199  1.9800000000000D+00  0.0000000000000D+00  0.0000000000000D+00
200  1.9900000000000D+00  0.0000000000000D+00  0.0000000000000D+00
201  2.0000000000000D+00  0.0000000000000D+00  0.0000000000000D+00
202  2.0100000000000D+00  0.0000000000000D+00  0.0000000000000D+00
203  2.0200000000000D+00  0.0000000000000D+00  0.0000000000000D+00
204  2.0300000000000D+00  0.0000000000000D+00  0.0000000000000D+00
205  2.0400000000000D+00  0.0000000000000D+00  0.0000000000000D+00
206  2.0500000000000D+00  0.0000000000000D+00  0.0000000000000D+00
207  2.0600000000000D+00  0.0000000000000D+00  0.0000000000000D+00
208  2.0700000000000D+00  0.0000000000000D+00  0.0000000000000D+00
209  2.0800000000000D+00  0.0000000000000D+00  0.0000000000000D+00
210  2.0900000000000D+00  0.0000000000000D+00  0.0000000000000D+00
211  2.1000000000000D+00  0.0000000000000D+00  0.0000000000000D+00
212  2.1100000000000D+00  0.0000000000000D+00  0.0000000000000D+00
213  2.1200000000000D+00  0.0000000000000D+00  0.0000000000000D+00
214  2.1300000000000D+00  0.0000000000000D+00  0.0000000000000D+00
215  2.1400000000000D+00  0.0000000000000D+00  0.0000000000000D+00
216  2.1500000000000D+00  0.0000000000000D+00  0.0000000000000D+00
217  2.1600000000000D+00  0.0000000000000D+00  0.0000000000000D+00
218  2.1700000000000D+00  0.0000000000000D+00  0.0000000000000D+00
219  2.1800000000000D+00  0.0000000000000D+00  0.0000000000000D+00
220  2.1900000000000D+00  0.0000000000000D+00  0.0000000000000D+00
221  2.2000000000000D+00  0.0000000000000D+00  0.0000000000000D+00
222  2.2100000000000D+00  0.0000000000000D+00  0.0000000000000D+00
223  2.2200000000000D+00  0.0000000000000D+00  0.0000000000000D+00
224  2.2300000000000D+00  0.0000000000000D+00  0.0000000000000D+00
225  2.2400000000000D+00  0.0000000000000D+00  0.0000000000000D+00
226  2.2500000000000D+00  0.0000000000000D+00  0.0000000000000D+00
227  2.2600000000000D+00  0.0000000000000D+00  0.0000000000000D+00
228  2.2700000000000D+00  0.0000000000000D+00  0.0000000000000D+00
229  2.2800000000000D+00  0.0000000000000D+00  0.0000000000000D+00
230  2.2900000000000D+00  0.0000000000000D+00  0.0000000000000D+00
231  2.3000000000000D+00  0.0000000000000D+00  0.0000000000000D+00
232  2.3100000000000D+00  0.0000000000000D+00  0.0000000000000D+00
233  2.3200000000000D+00  0.0000000000000D+00  0.0000000000000D+00
234  2.3300000000000D+00  0.0000000000000D+00  0.0000000000000D+00
235  2.3400000000000D+00  0.0000000000000D+00  0.0000000000000D+00
236  2.3500000000000D+00  0.0000000000000D+00  0.0000000000000D+00
237  2.3600000000000D+00  0.0000000000000D+00  0.0000000000000D+00
238  2.3700000000000D+00  0.0000000000000D+00  0.0000000000000D+00
239  2.3800000000000D+00  0.0000000000000D+00  0.0000000000000D+00
240  2.3900000000000D+00  0.0000000000000D+00  0.0000000000000D+00
241  2.4000000000000D+00  0.0000000000000D+00  0.0000000000000D+00
242  2.4100000000000D+00  0.0000000000000D+00  0.0000000000000D+00
243  2.4200000000000D+00  0.0000000000000D+00  0.0000000000000D+00
244  2.4300000000000D+00  0.0000000000000D+00  0.0000000000000D+00
245  2.4400000000000D+00  0.0000000000000D+00  0.0000000000000D+00
246  2.4500000000000D+00  0.0000000000000D+00  0.0000000000000D+00
247  2.4600000000000D+00  0.0000000000000D+00  0.0000000000000D+00
248  2.4700000000000D+00  0.0000000000000D+00  0.0000000000000D+00
249  2.4800000000000D+00  0.0000000000000D+00  0.0000000000000D+00
250  2.4900000000000D+00  0.0000000000000D+00  0.0000000000000D+00
251  2.5000000000000D+00  0.0000000000000D+00  0.0000000000000D+00
252  2.5100000000000D+00  0.0000000000000D+00  0.0000000000000D+00
253  2.5200000000000D+00  0.0000000000000D+00  0.0000000000000D+00
254  2.5300000000000D+00  0.0000000000000D+00  0.0000000000000D+00
255  2.5400000000000D+00  0.0000000000000D+00  0.0000000000000D+00
256  2.5500000000000D+00  0.0000000000000D+00  0.0000000000000D+00
257  2.5600000000000D+00  0.0000000000000D+00  0.0000000000000D+00
258  2.5700000000000D+00  0.0000000000000D+00  0.0000000000000D+00
259  2.5800000000000D+00  0.0000000000000D+00  0.0000000000000D+00
260  2.5900000000000D+00  0.0000000000000D+00  0.0000000000000D+00
261  2.6000000000000D+00  0.0000000000000D+00  0.0000000000000D+00
262  2.6100000000000D+00  0.0000000000000D+00  0.0000000000000D+00
263  2.6200000000000D+00  0.0000000000000D+00  0.0000000000000D+00
264  2.6300000000000D+00  0.0000000000000D+00  0.0000000000000D+00
265  2.6400000000000D+00  0.0000000000000D+00  0.0000000000000D+00
266  2.6500000000000D+00  0.0000000000000D+00  0.0000000000000D+00
267  2.6600000000000D+00  0.0000000000000D+00  0.0000000000000D+00
268  2.6700000000000D+00  0.0000000000000D+00  0.0000000000000D+00
269  2.6800000000000D+00  0.0000000000000D+00  0.0000000000000D+00
270  2.6900000000000D+00  0.0000000000000D+00  0.0000000000000D+00
271  2.7000000000000D+00  0.0000000000000D+00  0.0000000000000D+00
272  2.7100000000000D+00  0.0000000000000D+00  0.0000000000000D+00
273  2.7200000000000D+00  0.0000000000000D+00  0.0000000000000D+00
274  2.7300000000000D+00  0.0000000000000D+00  0.0000000000000D+00
275  2.7400000000000D+00  0.0000000000000D+00  0.0000000000000D+00
276  2.7500000000000D+00  0.0000000000000D+00  0.0000000000000D+00
277  2.7600000000000D+00  0.0000000000000D+00  0.0000000000000D+00
278  2.7700000000000D+00  0.0000000000000D+00  0.0000000000000D+00
279  2.7800000000000D+00  0.0000000000000D+00  0.0000000000000D+00
280  2.7900000000000D+00  0.0000000000000D+00  0.0000000000000D+00
281  2.8000000000000D+00  0.0000000000000D+00  0.0000000000000D+00
282  2.8100000000000D+00  0.0000000000000D+00  0.0000000000000D+00
283  2.8200000000000D+00  0.0000000000000D+00  0.0000000000000D+00
284  2.8300000000000D+00  0.0000000000000D+00  0.0000000000000D+00
285  2.8400000000000D+00  0.0000000000000D+00  0.0000000000000D+00
286  2.8500000000000D+00  0.0000000000000D+00  0.0000000000000D+00
287  2.8600000000000D+00  0.0000000000000D+00  0.0000000000000D+00
288  2.8700000000000D+00  0.0000000000000D+00  0.0000000000000D+00
289  2.8800000000000D+00  0.0000000000000D+00  0.0000000000000D+00
290  2.8900000000000D+00  0.0000000000000D+00  0.0000000000000D+00
291  2.9000000000000D+00  0.0000000000000D+00  0.0000000000000D+00
292  2.9100000000000D+00  0.0000000000000D+00  0.0000000000000D+00
293  2.9200000000000D+00  0.0000000000000D+00  0.0000000000000D+00
294  2.9300000000000D+00  0.0000000000000D+00  0.0000000000000D+00
295  2.9400000000000D+00  0.0000000000000D+00  0.0000000000000D+00
296  2.9500000000000D+00  0.0000000000000D+00  0.0000000000000D+00
297  2.9600000000000D+00  0.0000000000000D+00  0.0000000000000D+00
298  2.9700000000000D+00  0.0000000000000D+00  0.0000000000000D+00
299  2.9800000000000D+00  0.0000000000000D+00  0.0000000000000D+00
300  2.9900000000000D+00  0.0000000000000D+00  0.0000000000000D+00
301  3.0000000000000D+00  0.0000000000000D+00  0.0000000000000D+00
302  3.0100000000000D+00  0.0000000000000D+00  0.0000000000000D+00
303  3.0200000000000D+00  0.0000000000000D+00  0.0000000000000D+00
304  3.0300000000000D+00  0.0000000000000D+00  0.0000000000000D+00
305  3.0400000000000D+00  0.0000000000000D+00  0.0000000000000D+00
306  3.0500000000000D+00  0.0000000000000D+00  0.0000000000000D+00
307  3.0600000000000D+00  0.0000000000000D+00  0.0000000000000D+00
308  3.0700000000000D+00  0.0000000000000D+00  0.0000000000000D+00
309  3.0800000000000D+00  0.0000000000000D+00  0.0000000000000D+00
310  3.0900000000000D+00  0.0000000000000D+00  0.0000000000000D+00
311  3.1000000000000D+00  0.0000000000000D+00  0.0000000000000D+00
312  3.1100000000000D+00  0.0000000000000D+00  0.0000000000000D+00
313  3.1200000000000D+00  0.0000000000000D+00  0.0000000000000D+00
314  3.1300000000000D+00  0.0000000000000D+00  0.0000000000000D+00
315  3.1400000000000D+00  0.0000000000000D+00  0.0000000000000D+00
316  3.1500000000000D+00  0.0000000000000D+00  0.0000000000000D+00
317  3.1600000000000D+00  0.0000000000000D+00  0.0000000000000D+00
318  3.1700000000000D+00  0.0000000000000D+00  0.0000000000000D+00
319  3.1800000000000D+00  0.0000000000000D+00  0.0000000000000D+00
320  3.1900000000000D+00  0.0000000000000D+00  0.0000000000000D+00
321  3.2000000000000D+00  0.0000000000000D+00  0.0000000000000D+00
322  3.2100000000000D+00  0.0000000000000D+00  0.0000000000000D+00
323  3.2200000000000D+00  0.0000000000000D+00  0.0000000000000D+00
324  3.2300000000000D+00  0.0000000000000D+00  0.0000000000000D+00
325  3.2400000000000D+00  0.0000000000000D+00  0.0000000000000D+00
326  3.2500000000000D+00  0.0000000000000D+00  0.0000000000000D+00
327  3.2600000000000D+00  0.0000000000000D+00  0.0000000000000D+00
328  3.2700000000000D+00  0.0000000000000D+00  0.0000000000000D+00
329  3.2800000000000D+00  0.0000000000000D+00  0.0000000000000D+00
330  3.2900000000000D+00  0.0000000000000D+00  0.0000000000000D+00
331  3.3000000000000D+00  0.0000000000000D+00  0.0000000000000D+00
332  3.3100000000000D+00  0.0000000000000D+00  0.0000000000000D+00
333  3.3200000000000D+00  0.0000000000000D+00  0.0000000000000D+00
334  3.3300000000000D+00  0.0000000000000D+00  0.0000000000000D+00
335  3.3400000000000D+00  0.0000000000000D+00  0.0000000000000D+00
336  3.3500000000000D+00  0.0000000000000D+00  0.0000000000000D+00
337  3.3600000000000D+00  0.0000000000000D+00  0.0000000000000D+00
338  3.3700000000000D+00  0.0000000000000D+00  0.0000000000000D+00
339  3.3800000000000D+00  0.0000000000000D+00  0.0000000000000D+00
340  3.3900000000000D+00  0.0000000000000D+00  0.0000000000000D+00
341  3.4000000000000D+00  0.0000000000000D+00  0.0000000000000D+00
342  3.4100000000000D+00  0.0000000000000D+00  0.0000000000000D+00
343  3.4200000000000D+00  0.0000000000000D+00  0.0000000000000D+00
344  3.4300000000000D+00  0.0000000000000D+00  0.0000000000000D+00
345  3.4400000000000D+00  0.0000000000000D+00  0.0000000000000D+00
346  3.4500000000000D+00  0.0000000000000D+00  0.0000000000000D+00
347  3.4600000000000D+00  0.0000000000000D+00  0.0000000000000D+00
348  3.4700000000000D+00  0.0000000000000D+00  0.0000000000000D+00
349  3.4800000000000D+00  0.0000000000000D+00  0.0000000000000D+00
350  3.4900000000000D+00  0.0000000000000D+00  0.0000000000000D+00
351  3.5000000000000D+00  0.0000000000000D+00  0.0000000000000D+00
352  3.5100000000000D+00  0.0000000000000D+00  0.0000000000000D+00
353  3.5200000000000D+00  0.0000000000000D+00  0.0000000000000D+00
354  3.5300000000000D+00  0.0000000000000D+00  0.0000000000000D+00
355  3.5400000000000D+00  0.0000000000000D+00  0.0000000000000D+00
356  3.5500000000000D+00  0.0000000000000D+00  0.0000000000000D+00
357  3.5600000000000D+00  0.0000000000000D+00  0.0000000000000D+00
358  3.5700000000000D+00  0.0000000000000D+00  0.0000000000000D+00
359  3.5800000000000D+00  0.0000000000000D+00  0.0000000000000D+00
360  3.5900000000000D+00  0.0000000000000D+00  0.0000000000000D+00
361  3.6000000000000D+00  0.0000000000000D+00  0.0000000000000D+00
362  3.6100000000000D+00  0.0000000000000D+00  0.0000000000000D+00
363  3.6200000000000D+00  0.0000000000000D+00  0.0000000000000D+00
364  3.6300000000000D+00  0.0000000000000D+00  0.0000000000000D+00
365  3.6400000000000D+00  0.0000000000000D+00  0.0000000000000D+00
366  3.6500000000000D+00  0.0000000000000D+00  0.0000000000000D+00
367  3.6600000000000D+00  0.0000000000000D+00  0.0000000000000D+00
368  3.6700000000000D+00  0.0000000000000D+00  0.0000000000000D+00
369  3.6800000000000D+00  0.0000000000000D+00  0.0000000000000D+00
370  3.6900000000000D+00  0.0000000000000D+00  0.0000000000000D+00
371  3.7000000000000D+00  0.0000000000000D+00  0.0000000000000D+00
372  3.7100000000000D+00  0.0000000000000D+00  0.0000000000000D+00
373  3.7200000000000D+00  0.0000000000000D+00  0.0000000000000D+00
374  3.7300000000000D+00  0.0000000000000D+00  0.0000000000000D+00
375  3.7400000000000D+00  0.0000000000000D+00  0.0000000000000D+00
376  3.7500000000000D+00  0.0000000000000D+00  0.0000000000000D+00
377  3.7600000000000D+00  0.0000000000000D+00  0.0000000000000D+00
378  3.7700000000000D+00  0.0000000000000D+00  0.0000000000000D+00
379  3.7800000000000D+00  0.0000000000000D+00  0.0000000000000D+00
380  3.7900000000000D+00  0.0000000000000D+00  0.0000000000000D+00
381  3.8000000000000D+00  0.0000000000000D+00  0.0000000000000D+00
382  3.8100000000000D+00  0.0000000000000D+00  0.0000000000000D+00
383  3.8200000000000D+00  0.0000000000000D+00  0.0000000000000D+00
384  3.8300000000000D+00  0.0000000000000D+00  0.0000000000000D+00
385  3.8400000000000D+00  0.0000000000000D+00  0.0000000000000D+00
386  3.8500000000000D+00  0.0000000000000D+00  0.0000000000000D+00
387  3.8600000000000D+00  0.0000000000000D+00  0.0000000000000D+00
388  3.8700000000000D+00  0.0000000000000D+00  0.0000000000000D+00
389  3.8800000000000D+00  0.0000000000000D+00  0.0000000000000D+00
390  3.8900000000000D+00  0.0000000000000D+00  0.0000000000000D+00
391  3.9000000000000D+00  0.0000000000000D+00  0.0000000000000D+00
392  3.9100000000000D+00  0.0000000000000D+00  0.0000000000000D+00
393  3.9200000000000D+00  0.0000000000000D+00  0.0000000000000D+00
394  3.9300000000000D+00  0.0000000000000D+00  0.0000000000000D+00
395  3.9400000000000D+00  0.0000000000000D+00  0.0000000000000D+00
396  3.9500000000000D+00  0.0000000000000D+00  0.0000000000000D+00
397  3.9600000000000D+00  0.0000000000000D+00  0.0000000000000D+00
398  3.9700000000000D+00  0.0000000000000D+00  0.0000000000000D+00
399  3.9800000000000D+00  0.0000000000000D+00  0.0000000000000D+00
400  3.9900000000000D+00  0.0000000000000D+00  0.0000000000000D+00
401  4.0000000000000D+00  0.0000000000000D+00  0.0000000000000D+00
402  4.0100000000000D+00  0.0000000000000D+00  0.0000000000000D+00
403  4.0200000000000D+00  0.0000000000000D+00  0.0000000000000D+00
404  4.0300000000000D+00  0.0000000000000D+00  0.0000000000000D+00
405  4.0400000000000D+00  0.0000000000000D+00  0.0000000000000D+00
406  4.0500000000000D+00  0.0000000000000D+00  0.0000000000000D+00
407  4.0600000000000D+00  0.0000000000000D+00  0.0000000000000D+00
408  4.0700000000000D+00  0.0000000000000D+00  0.0000000000000D+00
409  4.0800000000000D+00  0.0000000000000D+00  0.0000000000000D+00
410  4.0900000000000D+00  0.0000000000000D+00  0.0000000000000D+00
411  4.1000000000000D+00  0.0000000000000D+00  0.0000000000000D+00
412  4.1100000000000D+00  0.0000000000000D+00  0.0000000000000D+00
413  4.1200000000000D+00  0.0000000000000D+00  0.0000000000000D+00
414  4.1300000000000D+00  0.0000000000000D+00  0.0000000000000D+00
415  4.1400000000000D+00  0.0000000000000D+00  0.0000000000000D+00
416  4.1500000000000D+00  0.0000000000000D+00  0.0000000000000D+00
417  4.1600000000000D+00  0.0000000000000D+00  0.0000000000000D+00
418  4.1700000000000D+00  0.0000000000000D+00  0.0000000000000D+00
419  4.1800000000000D+00  0.0000000000000D+00  0.0000000000000D+00
420  4.1900000000000D+00  0.0000000000000D+00  0.0000000000000D+00
421  4.2000000000000D+00  0.0000000000000D+00  0.0000000000000D+00
422  4.2100000000000D+00  0.0000000000000D+00  0.0000000000000D+00
423  4.2200000000000D+00  0.0000000000000D+00  0.0000000000000D+00
424  4.2300000000000D+00  0.0000000000000D+00  0.0000000000000D+00
425  4.2400000000000D+00  0.0000000000000D+00  0.0000000000000D+00
426  4.2500000000000D+00  0.0000000000000D+00  0.0000000000000D+00
427  4.2600000000000D+00  0.0000000000000D+00  0.0000000000000D+00
428  4.2700000000000D+00  0.0000000000000D+00  0.0000000000000D+00
429  4.2800000000000D+00  0.0000000000000D+00  0.0000000000000D+00
430  4.2900000000000D+00  0.0000000000000D+00  0.0000000000000D+00
431  4.3000000000000D+00  0.0000000000000D+00  0.0000000000000D+00
432  4.3100000000000D+00  0.0000000000000D+00  0.0000000000000D+00
433  4.3200000000000D+00  0.0000000000000D+00  0.0000000000000D+00
434  4.3300000000000D+00  0.0000000000000D+00  0.0000000000000D+00
435  4.3400000000000D+00  0.0000000000000D+00  0.0000000000000D+00
436  4.3500000000000D+00  0.0000000000000D+00  0.0000000000000D+00
437  4.3600000000000D+00  0.0000000000000D+00  0.0000000000000D+00
438  4.3700000000000D+00  0.0000000000000D+00  0.0000000000000D+00
439  4.3800000000000D+00  0.0000000000000D+00  0.0000000000000D+00
440  4.3900000000000D+00  0.0000000000000D+00  0.0000000000000D+00
441  4.4000000000000D+00  0.0000000000000D+00  0.0000000000000D+00
442  4.4100000000000D+00  0.0000000000000D+00  0.0000000000000D+00
443  4.4200000000000D+00  0.0000000000000D+00  0.0000000000000D+00