W     ONCVPSP-3.3.0  r_core=   1.61105   1.61105   1.61105   2.02088
74.0000     14.0000      180430    zatom,zion,pspd
8 -116133   3     4   600     0    pspcod,pspxc,lmax,lloc,mmax,r2well
5.99000000  5.00000000  0.00000000    rchrg fchrg qchrg
2     4     3     4    nproj
3     1           extension_switch
4     4     4    nprojso
0                         1.8486530475937D+00  1.3037723996124D+01
1  0.0000000000000D+00  3.0576122189707D-10 -6.0500271459318D-11
2  1.0000000000000D-02 -2.0270764532799D-02  5.2576167364529D-02
3  2.0000000000000D-02 -4.0453800503255D-02  1.0509227487206D-01
4  3.0000000000000D-02 -6.0461901303144D-02  1.5748832412869D-01
5  4.0000000000000D-02 -8.0208897920420D-02  2.0970443887526D-01
6  5.0000000000000D-02 -9.9610162035567D-02  2.6168092409148D-01
7  6.0000000000000D-02 -1.1858309049459D-01  3.1335832278782D-01
8  7.0000000000000D-02 -1.3704756531306D-01  3.6467746978599D-01
9  8.0000000000000D-02 -1.5492638367149D-01  4.1557954184981D-01
10  9.0000000000000D-02 -1.7214565273846D-01  4.6600610360214D-01
11  1.0000000000000D-01 -1.8863514460134D-01  5.1589914875091D-01
12  1.1000000000000D-01 -2.0432860708951D-01  5.6520113624619D-01
13  1.2000000000000D-01 -2.1916402683749D-01  6.1385502109962D-01
14  1.3000000000000D-01 -2.3308384154858D-01  6.6180427971658D-01
15  1.4000000000000D-01 -2.4603509907771D-01  7.0899292971737D-01
16  1.5000000000000D-01 -2.5796956164741D-01  7.5536554435686D-01
17  1.6000000000000D-01 -2.6884375423648D-01  8.0086726178807D-01
18  1.7000000000000D-01 -2.7861895692760D-01  8.4544378955483D-01
19  1.8000000000000D-01 -2.8726114176168D-01  8.8904140483809D-01
20  1.9000000000000D-01 -2.9474085541120D-01  9.3160695111828D-01
21  2.0000000000000D-01 -3.0103304974666D-01  9.7308783205069D-01
22  2.1000000000000D-01 -3.0611686311766D-01  1.0134320034793D+00
23  2.2000000000000D-01 -3.0997535589542D-01  1.0525879646347D+00
24  2.3000000000000D-01 -3.1259520451659D-01  1.0905047496732D+00
25  2.4000000000000D-01 -3.1396635892075D-01  1.1271319208113D+00
26  2.5000000000000D-01 -3.1408166887658D-01  1.1624195643949D+00
27  2.6000000000000D-01 -3.1293648523538D-01  1.1963182913111D+00
28  2.7000000000000D-01 -3.1052824262883D-01  1.2287792431992D+00
29  2.8000000000000D-01 -3.0685603053085D-01  1.2597541059495D+00
30  2.9000000000000D-01 -3.0192015992573D-01  1.2891951319888D+00
31  3.0000000000000D-01 -2.9572173305959D-01  1.3170551728359D+00
32  3.1000000000000D-01 -2.8826222389420D-01  1.3432877233782D+00
33  3.2000000000000D-01 -2.7954307692607D-01  1.3678469792562D+00
34  3.3000000000000D-01 -2.6956533197796D-01  1.3906879086612D+00
35  3.4000000000000D-01 -2.5832928240930D-01  1.4117663397378D+00
36  3.5000000000000D-01 -2.4583417392791D-01  1.4310390646495D+00
37  3.6000000000000D-01 -2.3207795081576D-01  1.4484639612058D+00
38  3.7000000000000D-01 -2.1705705590910D-01  1.4640001327641D+00
39  3.8000000000000D-01 -2.0076629009919D-01  1.4776080669135D+00
40  3.9000000000000D-01 -1.8319873644956D-01  1.4892498132204D+00
41  4.0000000000000D-01 -1.6434575326296D-01  1.4988891800657D+00
42  4.1000000000000D-01 -1.4419703958351D-01  1.5064919503417D+00
43  4.2000000000000D-01 -1.2274077569415D-01  1.5120261154910D+00
44  4.3000000000000D-01 -9.9963840176508D-02  1.5154621270841D+00
45  4.4000000000000D-01 -7.5852104048146D-02  1.5167731648238D+00
46  4.5000000000000D-01 -5.0390801394922D-02  1.5159354195619D+00
47  4.6000000000000D-01 -2.3564974783244D-02  1.5129283896013D+00
48  4.7000000000000D-01  4.6400074152278D-03  1.5077351882513D+00
49  4.8000000000000D-01  3.4237865814283D-02  1.5003428602985D+00
50  4.9000000000000D-01  6.5240762098236D-02  1.4907427047669D+00
51  5.0000000000000D-01  9.7658594709441D-02  1.4789306010614D+00
52  5.1000000000000D-01  1.3149824553633D-01  1.4649073353289D+00
53  5.2000000000000D-01  1.6676278603623D-01  1.4486789236371D+00
54  5.3000000000000D-01  2.0345065219386D-01  1.4302569283579D+00
55  5.4000000000000D-01  2.4155479859956D-01  1.4096587639674D+00
56  5.5000000000000D-01  2.8106184271386D-01  1.3869079883270D+00
57  5.6000000000000D-01  3.2195121105701D-01  1.3620345754096D+00
58  5.7000000000000D-01  3.6419429960688D-01  1.3350751653646D+00
59  5.8000000000000D-01  4.0775366109702D-01  1.3060732878044D+00
60  5.9000000000000D-01  4.5258223216821D-01  1.2750795542150D+00
61  6.0000000000000D-01  4.9862261343047D-01  1.2421518154783D+00
62  6.1000000000000D-01  5.4580641543454D-01  1.2073552806141D+00
63  6.2000000000000D-01  5.9405368332391D-01  1.1707625930360D+00
64  6.3000000000000D-01  6.4327241254023D-01  1.1324538608394D+00
65  6.4000000000000D-01  6.9335816738016D-01  1.0925166379287D+00
66  6.5000000000000D-01  7.4419381346120D-01  1.0510458531171D+00
67  6.6000000000000D-01  7.9564937423770D-01  1.0081436847194D+00
68  6.7000000000000D-01  8.4758202063150D-01  9.6391937858135D-01
69  6.8000000000000D-01  8.9983620161385D-01  9.1848900796252D-01
70  6.9000000000000D-01  9.5224392219370D-01  8.7197517419898D-01
71  7.0000000000000D-01  1.0046251737591D+00  8.2450664761858D-01
72  7.1000000000000D-01  1.0567885200877D+00  7.7621794875755D-01
73  7.2000000000000D-01  1.1085318406144D+00  7.2724887052716D-01
74  7.3000000000000D-01  1.1596432307248D+00  6.7774394259977D-01
75  7.4000000000000D-01  1.2099020569645D+00  6.2785183991609D-01
76  7.5000000000000D-01  1.2590801631293D+00  5.7772473785197D-01
77  7.6000000000000D-01  1.3069432212604D+00  5.2751761721972D-01
78  7.7000000000000D-01  1.3532522196225D+00  4.7738752290560D-01
79  7.8000000000000D-01  1.3977650778308D+00  4.2749278055591D-01
80  7.9000000000000D-01  1.4402383774303D+00  3.7799217630852D-01
81  8.0000000000000D-01  1.4804291944353D+00  3.2904410512379D-01
82  8.1000000000000D-01  1.5180970186553D+00  2.8080569378169D-01
83  8.2000000000000D-01  1.5530057430627D+00  2.3343190508207D-01
84  8.3000000000000D-01  1.5849257050386D+00  1.8707463020035D-01
85  8.4000000000000D-01  1.6136357600813D+00  1.4188177650764D-01
86  8.5000000000000D-01  1.6389253674922D+00  9.7996358454910D-02
87  8.6000000000000D-01  1.6605966666958D+00  5.5555599341374D-02
88  8.7000000000000D-01  1.6784665222079D+00  1.4690051932828D-02
89  8.8000000000000D-01  1.6923685148600D+00 -2.4477254038280D-02
90  8.9000000000000D-01  1.7021548567281D+00 -6.1831629474039D-02
91  9.0000000000000D-01  1.7076982073019D+00 -9.7267500695603D-02
92  9.1000000000000D-01  1.7088933687851D+00 -1.3068913367665D-01
93  9.2000000000000D-01  1.7056588390233D+00 -1.6201130025953D-01
94  9.3000000000000D-01  1.6979382014232D+00 -1.9115987923924D-01
95  9.4000000000000D-01  1.6857013323589D+00 -2.1807238563714D-01
96  9.5000000000000D-01  1.6689454079102D+00 -2.4269842199255D-01
97  9.6000000000000D-01  1.6476956933947D+00 -2.6500004609147D-01
98  9.7000000000000D-01  1.6220061009771D+00 -2.8495205020791D-01
99  9.8000000000000D-01  1.5919595026575D+00 -3.0254214765039D-01
100  9.9000000000000D-01  1.5576677881553D+00 -3.1777106318364D-01
101  1.0000000000000D+00  1.5192716595687D+00 -3.3065252472027D-01
102  1.0100000000000D+00  1.4769401571819D+00 -3.4121315453791D-01
103  1.0200000000000D+00  1.4308699134721D+00 -3.4949225919865D-01
104  1.0300000000000D+00  1.3812841348833D+00 -3.5554151820795D-01
105  1.0400000000000D+00  1.3284313138691D+00 -3.5942457244841D-01
106  1.0500000000000D+00  1.2725836763290D+00 -3.6121651431288D-01
107  1.0600000000000D+00  1.2140353723142D+00 -3.6100328239088D-01
108  1.0700000000000D+00  1.1531004206111D+00 -3.5888096448206D-01
109  1.0800000000000D+00  1.0901104203160D+00 -3.5495501355262D-01
110  1.0900000000000D+00  1.0254120450088D+00 -3.4933938208649D-01
111  1.1000000000000D+00  9.5936433758280D-01 -3.4215558110263D-01
112  1.1100000000000D+00  8.9233582578941D-01 -3.3353167077881D-01
113  1.1200000000000D+00  8.2470148068450D-01 -3.2360119033292D-01
114  1.1300000000000D+00  7.5683954156159D-01 -3.1250203527951D-01
115  1.1400000000000D+00  6.8912823287574D-01 -3.0037529082015D-01
116  1.1500000000000D+00  6.2194239953367D-01 -2.8736403041790D-01
117  1.1600000000000D+00  5.5565008794515D-01 -2.7361208894949D-01
118  1.1700000000000D+00  4.9060910077349D-01 -2.5926282001152D-01
119  1.1800000000000D+00  4.2716355379153D-01 -2.4445784712004D-01
120  1.1900000000000D+00  3.6564046301534D-01 -2.2933581847124D-01
121  1.2000000000000D+00  3.0634638996763D-01 -2.1403117483362D-01
122  1.2100000000000D+00  2.4956417252849D-01 -1.9867294002130D-01
123  1.2200000000000D+00  1.9554976156602D-01 -1.8338354166510D-01
124  1.2300000000000D+00  1.4452918864205D-01 -1.6827767047825D-01
125  1.2400000000000D+00  9.6695885661234D-02 -1.5346123315782D-01
126  1.2500000000000D+00  5.2207656455542D-02 -1.3903023745307D-01
127  1.2600000000000D+00  1.1183951780550D-02 -1.2506977281299D-01
128  1.2700000000000D+00 -2.6290453528233D-02 -1.1165441050092D-01
129  1.2800000000000D+00 -6.0161257156456D-02 -9.8848860345096D-02
130  1.2900000000000D+00 -9.0400008609825D-02 -8.6708838721555D-02
131  1.3000000000000D+00 -1.1700519033365D-01 -7.5280747485564D-02
132  1.3100000000000D+00 -1.4000217913324D-01 -6.4601630302803D-02
133  1.3200000000000D+00 -1.5944280321570D-01 -5.4699238429119D-02
134  1.3300000000000D+00 -1.7540473910923D-01 -4.5592163980089D-02
135  1.3400000000000D+00 -1.8799066944524D-01 -3.7290053212104D-02
136  1.3500000000000D+00 -1.9732718938785D-01 -2.9793902113384D-02
137  1.3600000000000D+00 -2.0356347834343D-01 -2.3096429848775D-02
138  1.3700000000000D+00 -2.0686975037023D-01 -1.7182525583439D-02
139  1.3800000000000D+00 -2.0743549368423D-01 -1.2029765165726D-02
140  1.3900000000000D+00 -2.0546751934360D-01 -7.6089914398463D-03
141  1.4000000000000D+00 -2.0118783881268D-01 -3.8849517685731D-03
142  1.4100000000000D+00 -1.9483138760079D-01 -8.1698720220209D-04
143  1.4200000000000D+00 -1.8664362010058D-01  1.6402347951985D-03
144  1.4300000000000D+00 -1.7687799684379D-01  3.5359509073620D-03
145  1.4400000000000D+00 -1.6579339026447D-01  4.9225041297994D-03
146  1.4500000000000D+00 -1.5365143545757D-01  5.8545260176347D-03
147  1.4600000000000D+00 -1.4071385122934D-01  6.3881071265191D-03
148  1.4700000000000D+00 -1.2723975981275D-01  6.5799646968685D-03
149  1.4800000000000D+00 -1.1348303183117D-01  6.4866160594885D-03
150  1.4900000000000D+00 -9.9689683376029D-02  6.1635664032985D-03
151  1.5000000000000D+00 -8.6095349619517D-02  5.6645186955397D-03
152  1.5100000000000D+00 -7.2922865995718D-02  5.0406155825395D-03
153  1.5200000000000D+00 -6.0379974991260D-02  4.3397190581780D-03
154  1.5300000000000D+00 -4.8657190201783D-02  3.6057379953212D-03
155  1.5400000000000D+00 -3.7925830903831D-02  2.8780077626485D-03
156  1.5500000000000D+00 -2.8336255323769D-02  2.1907309124615D-03
157  1.5600000000000D+00 -2.0021071126048D-02  1.5728754835234D-03
158  1.5700000000000D+00 -1.3073510849512D-02  1.0460796765009D-03
159  1.5800000000000D+00 -7.5414763853445D-03  6.2340751187299D-04
160  1.5900000000000D+00 -3.5721245597206D-03  3.2332151884718D-04
161  1.6000000000000D+00 -1.2649715975681D-03  1.5707327378675D-04
162  1.6100000000000D+00 -2.5733737138067D-04  8.0567700971305D-05
163  1.6200000000000D+00  2.2846535720551D-05  3.1730163836481D-05
164  1.6300000000000D+00  2.3983727341809D-06  8.0283151512946D-07
165  1.6400000000000D+00 -2.1654769974503D-05 -4.7433727369161D-06
166  1.6500000000000D+00  2.4482054197201D-08  1.2598361911639D-08
167  1.6600000000000D+00  3.0097526984761D-06  1.2045048335797D-06
168  1.6700000000000D+00  2.7342922913067D-08 -1.0075834602340D-08
169  1.6800000000000D+00  5.7505315904340D-07 -2.1190640578172D-07
170  1.6900000000000D+00  0.0000000000000D+00  0.0000000000000D+00
171  1.7000000000000D+00  0.0000000000000D+00  0.0000000000000D+00
172  1.7100000000000D+00  0.0000000000000D+00  0.0000000000000D+00
173  1.7200000000000D+00  0.0000000000000D+00  0.0000000000000D+00
174  1.7300000000000D+00  0.0000000000000D+00  0.0000000000000D+00
175  1.7400000000000D+00  0.0000000000000D+00  0.0000000000000D+00
176  1.7500000000000D+00  0.0000000000000D+00  0.0000000000000D+00
177  1.7600000000000D+00  0.0000000000000D+00  0.0000000000000D+00
178  1.7700000000000D+00  0.0000000000000D+00  0.0000000000000D+00
179  1.7800000000000D+00  0.0000000000000D+00  0.0000000000000D+00
180  1.7900000000000D+00  0.0000000000000D+00  0.0000000000000D+00
181  1.8000000000000D+00  0.0000000000000D+00  0.0000000000000D+00
182  1.8100000000000D+00  0.0000000000000D+00  0.0000000000000D+00
183  1.8200000000000D+00  0.0000000000000D+00  0.0000000000000D+00
184  1.8300000000000D+00  0.0000000000000D+00  0.0000000000000D+00
185  1.8400000000000D+00  0.0000000000000D+00  0.0000000000000D+00
186  1.8500000000000D+00  0.0000000000000D+00  0.0000000000000D+00
187  1.8600000000000D+00  0.0000000000000D+00  0.0000000000000D+00
188  1.8700000000000D+00  0.0000000000000D+00  0.0000000000000D+00
189  1.8800000000000D+00  0.0000000000000D+00  0.0000000000000D+00
190  1.8900000000000D+00  0.0000000000000D+00  0.0000000000000D+00
191  1.9000000000000D+00  0.0000000000000D+00  0.0000000000000D+00
192  1.9100000000000D+00  0.0000000000000D+00  0.0000000000000D+00
193  1.9200000000000D+00  0.0000000000000D+00  0.0000000000000D+00
194  1.9300000000000D+00  0.0000000000000D+00  0.0000000000000D+00
195  1.9400000000000D+00  0.0000000000000D+00  0.0000000000000D+00
196  1.9500000000000D+00  0.0000000000000D+00  0.0000000000000D+00
197  1.9600000000000D+00  0.0000000000000D+00  0.0000000000000D+00
198  1.9700000000000D+00  0.0000000000000D+00  0.0000000000000D+00
199  1.9800000000000D+00  0.0000000000000D+00  0.0000000000000D+00
200  1.9900000000000D+00  0.0000000000000D+00  0.0000000000000D+00
201  2.0000000000000D+00  0.0000000000000D+00  0.0000000000000D+00
202  2.0100000000000D+00  0.0000000000000D+00  0.0000000000000D+00
203  2.0200000000000D+00  0.0000000000000D+00  0.0000000000000D+00
204  2.0300000000000D+00  0.0000000000000D+00  0.0000000000000D+00
205  2.0400000000000D+00  0.0000000000000D+00  0.0000000000000D+00
206  2.0500000000000D+00  0.0000000000000D+00  0.0000000000000D+00
207  2.0600000000000D+00  0.0000000000000D+00  0.0000000000000D+00
208  2.0700000000000D+00  0.0000000000000D+00  0.0000000000000D+00
209  2.0800000000000D+00  0.0000000000000D+00  0.0000000000000D+00
210  2.0900000000000D+00  0.0000000000000D+00  0.0000000000000D+00
211  2.1000000000000D+00  0.0000000000000D+00  0.0000000000000D+00
212  2.1100000000000D+00  0.0000000000000D+00  0.0000000000000D+00
213  2.1200000000000D+00  0.0000000000000D+00  0.0000000000000D+00
214  2.1300000000000D+00  0.0000000000000D+00  0.0000000000000D+00
215  2.1400000000000D+00  0.0000000000000D+00  0.0000000000000D+00
216  2.1500000000000D+00  0.0000000000000D+00  0.0000000000000D+00
217  2.1600000000000D+00  0.0000000000000D+00  0.0000000000000D+00
218  2.1700000000000D+00  0.0000000000000D+00  0.0000000000000D+00
219  2.1800000000000D+00  0.0000000000000D+00  0.0000000000000D+00
220  2.1900000000000D+00  0.0000000000000D+00  0.0000000000000D+00
221  2.2000000000000D+00  0.0000000000000D+00  0.0000000000000D+00
222  2.2100000000000D+00  0.0000000000000D+00  0.0000000000000D+00
223  2.2200000000000D+00  0.0000000000000D+00  0.0000000000000D+00
224  2.2300000000000D+00  0.0000000000000D+00  0.0000000000000D+00
225  2.2400000000000D+00  0.0000000000000D+00  0.0000000000000D+00
226  2.2500000000000D+00  0.0000000000000D+00  0.0000000000000D+00
227  2.2600000000000D+00  0.0000000000000D+00  0.0000000000000D+00
228  2.2700000000000D+00  0.0000000000000D+00  0.0000000000000D+00
229  2.2800000000000D+00  0.0000000000000D+00  0.0000000000000D+00
230  2.2900000000000D+00  0.0000000000000D+00  0.0000000000000D+00
231  2.3000000000000D+00  0.0000000000000D+00  0.0000000000000D+00
232  2.3100000000000D+00  0.0000000000000D+00  0.0000000000000D+00
233  2.3200000000000D+00  0.0000000000000D+00  0.0000000000000D+00
234  2.3300000000000D+00  0.0000000000000D+00  0.0000000000000D+00
235  2.3400000000000D+00  0.0000000000000D+00  0.0000000000000D+00
236  2.3500000000000D+00  0.0000000000000D+00  0.0000000000000D+00
237  2.3600000000000D+00  0.0000000000000D+00  0.0000000000000D+00
238  2.3700000000000D+00  0.0000000000000D+00  0.0000000000000D+00
239  2.3800000000000D+00  0.0000000000000D+00  0.0000000000000D+00
240  2.3900000000000D+00  0.0000000000000D+00  0.0000000000000D+00
241  2.4000000000000D+00  0.0000000000000D+00  0.0000000000000D+00
242  2.4100000000000D+00  0.0000000000000D+00  0.0000000000000D+00
243  2.4200000000000D+00  0.0000000000000D+00  0.0000000000000D+00
244  2.4300000000000D+00  0.0000000000000D+00  0.0000000000000D+00
245  2.4400000000000D+00  0.0000000000000D+00  0.0000000000000D+00
246  2.4500000000000D+00  0.0000000000000D+00  0.0000000000000D+00
247  2.4600000000000D+00  0.0000000000000D+00  0.0000000000000D+00
248  2.4700000000000D+00  0.0000000000000D+00  0.0000000000000D+00
249  2.4800000000000D+00  0.0000000000000D+00  0.0000000000000D+00
250  2.4900000000000D+00  0.0000000000000D+00  0.0000000000000D+00
251  2.5000000000000D+00  0.0000000000000D+00  0.0000000000000D+00
252  2.5100000000000D+00  0.0000000000000D+00  0.0000000000000D+00
253  2.5200000000000D+00  0.0000000000000D+00  0.0000000000000D+00
254  2.5300000000000D+00  0.0000000000000D+00  0.0000000000000D+00
255  2.5400000000000D+00  0.0000000000000D+00  0.0000000000000D+00
256  2.5500000000000D+00  0.0000000000000D+00  0.0000000000000D+00
257  2.5600000000000D+00  0.0000000000000D+00  0.0000000000000D+00
258  2.5700000000000D+00  0.0000000000000D+00  0.0000000000000D+00
259  2.5800000000000D+00  0.0000000000000D+00  0.0000000000000D+00
260  2.5900000000000D+00  0.0000000000000D+00  0.0000000000000D+00
261  2.6000000000000D+00  0.0000000000000D+00  0.0000000000000D+00
262  2.6100000000000D+00  0.0000000000000D+00  0.0000000000000D+00
263  2.6200000000000D+00  0.0000000000000D+00  0.0000000000000D+00
264  2.6300000000000D+00  0.0000000000000D+00  0.0000000000000D+00
265  2.6400000000000D+00  0.0000000000000D+00  0.0000000000000D+00
266  2.6500000000000D+00  0.0000000000000D+00  0.0000000000000D+00
267  2.6600000000000D+00  0.0000000000000D+00  0.0000000000000D+00
268  2.6700000000000D+00  0.0000000000000D+00  0.0000000000000D+00
269  2.6800000000000D+00  0.0000000000000D+00  0.0000000000000D+00
270  2.6900000000000D+00  0.0000000000000D+00  0.0000000000000D+00
271  2.7000000000000D+00  0.0000000000000D+00  0.0000000000000D+00
272  2.7100000000000D+00  0.0000000000000D+00  0.0000000000000D+00
273  2.7200000000000D+00  0.0000000000000D+00  0.0000000000000D+00
274  2.7300000000000D+00  0.0000000000000D+00  0.0000000000000D+00
275  2.7400000000000D+00  0.0000000000000D+00  0.0000000000000D+00
276  2.7500000000000D+00  0.0000000000000D+00  0.0000000000000D+00
277  2.7600000000000D+00  0.0000000000000D+00  0.0000000000000D+00
278  2.7700000000000D+00  0.0000000000000D+00  0.0000000000000D+00
279  2.7800000000000D+00  0.0000000000000D+00  0.0000000000000D+00
280  2.7900000000000D+00  0.0000000000000D+00  0.0000000000000D+00
281  2.8000000000000D+00  0.0000000000000D+00  0.0000000000000D+00
282  2.8100000000000D+00  0.0000000000000D+00  0.0000000000000D+00
283  2.8200000000000D+00  0.0000000000000D+00  0.0000000000000D+00
284  2.8300000000000D+00  0.0000000000000D+00  0.0000000000000D+00
285  2.8400000000000D+00  0.0000000000000D+00  0.0000000000000D+00
286  2.8500000000000D+00  0.0000000000000D+00  0.0000000000000D+00
287  2.8600000000000D+00  0.0000000000000D+00  0.0000000000000D+00
288  2.8700000000000D+00  0.0000000000000D+00  0.0000000000000D+00
289  2.8800000000000D+00  0.0000000000000D+00  0.0000000000000D+00
290  2.8900000000000D+00  0.0000000000000D+00  0.0000000000000D+00
291  2.9000000000000D+00  0.0000000000000D+00  0.0000000000000D+00
292  2.9100000000000D+00  0.0000000000000D+00  0.0000000000000D+00
293  2.9200000000000D+00  0.0000000000000D+00  0.0000000000000D+00
294  2.9300000000000D+00  0.0000000000000D+00  0.0000000000000D+00
295  2.9400000000000D+00  0.0000000000000D+00  0.0000000000000D+00
296  2.9500000000000D+00  0.0000000000000D+00  0.0000000000000D+00
297  2.9600000000000D+00  0.0000000000000D+00  0.0000000000000D+00
298  2.9700000000000D+00  0.0000000000000D+00  0.0000000000000D+00
299  2.9800000000000D+00  0.0000000000000D+00  0.0000000000000D+00
300  2.9900000000000D+00  0.0000000000000D+00  0.0000000000000D+00
301  3.0000000000000D+00  0.0000000000000D+00  0.0000000000000D+00
302  3.0100000000000D+00  0.0000000000000D+00  0.0000000000000D+00
303  3.0200000000000D+00  0.0000000000000D+00  0.0000000000000D+00
304  3.0300000000000D+00  0.0000000000000D+00  0.0000000000000D+00
305  3.0400000000000D+00  0.0000000000000D+00  0.0000000000000D+00
306  3.0500000000000D+00  0.0000000000000D+00  0.0000000000000D+00
307  3.0600000000000D+00  0.0000000000000D+00  0.0000000000000D+00
308  3.0700000000000D+00  0.0000000000000D+00  0.0000000000000D+00
309  3.0800000000000D+00  0.0000000000000D+00  0.0000000000000D+00
310  3.0900000000000D+00  0.0000000000000D+00  0.0000000000000D+00
311  3.1000000000000D+00  0.0000000000000D+00  0.0000000000000D+00
312  3.1100000000000D+00  0.0000000000000D+00  0.0000000000000D+00
313  3.1200000000000D+00  0.0000000000000D+00  0.0000000000000D+00
314  3.1300000000000D+00  0.0000000000000D+00  0.0000000000000D+00
315  3.1400000000000D+00  0.0000000000000D+00  0.0000000000000D+00
316  3.1500000000000D+00  0.0000000000000D+00  0.0000000000000D+00
317  3.1600000000000D+00  0.0000000000000D+00  0.0000000000000D+00
318  3.1700000000000D+00  0.0000000000000D+00  0.0000000000000D+00
319  3.1800000000000D+00  0.0000000000000D+00  0.0000000000000D+00
320  3.1900000000000D+00  0.0000000000000D+00  0.0000000000000D+00
321  3.2000000000000D+00  0.0000000000000D+00  0.0000000000000D+00
322  3.2100000000000D+00  0.0000000000000D+00  0.0000000000000D+00
323  3.2200000000000D+00  0.0000000000000D+00  0.0000000000000D+00
324  3.2300000000000D+00  0.0000000000000D+00  0.0000000000000D+00
325  3.2400000000000D+00  0.0000000000000D+00  0.0000000000000D+00
326  3.2500000000000D+00  0.0000000000000D+00  0.0000000000000D+00
327  3.2600000000000D+00  0.0000000000000D+00  0.0000000000000D+00
328  3.2700000000000D+00  0.0000000000000D+00  0.0000000000000D+00
329  3.2800000000000D+00  0.0000000000000D+00  0.0000000000000D+00
330  3.2900000000000D+00  0.0000000000000D+00  0.0000000000000D+00
331  3.3000000000000D+00  0.0000000000000D+00  0.0000000000000D+00
332  3.3100000000000D+00  0.0000000000000D+00  0.0000000000000D+00
333  3.3200000000000D+00  0.0000000000000D+00  0.0000000000000D+00
334  3.3300000000000D+00  0.0000000000000D+00  0.0000000000000D+00
335  3.3400000000000D+00  0.0000000000000D+00  0.0000000000000D+00
336  3.3500000000000D+00  0.0000000000000D+00  0.0000000000000D+00
337  3.3600000000000D+00  0.0000000000000D+00  0.0000000000000D+00
338  3.3700000000000D+00  0.0000000000000D+00  0.0000000000000D+00
339  3.3800000000000D+00  0.0000000000000D+00  0.0000000000000D+00
340  3.3900000000000D+00  0.0000000000000D+00  0.0000000000000D+00
341  3.4000000000000D+00  0.0000000000000D+00  0.0000000000000D+00
342  3.4100000000000D+00  0.0000000000000D+00  0.0000000000000D+00
343  3.4200000000000D+00  0.0000000000000D+00  0.0000000000000D+00
344  3.4300000000000D+00  0.0000000000000D+00  0.0000000000000D+00
345  3.4400000000000D+00  0.0000000000000D+00  0.0000000000000D+00
346  3.4500000000000D+00  0.0000000000000D+00  0.0000000000000D+00
347  3.4600000000000D+00  0.0000000000000D+00  0.0000000000000D+00
348  3.4700000000000D+00  0.0000000000000D+00  0.0000000000000D+00
349  3.4800000000000D+00  0.0000000000000D+00  0.0000000000000D+00
350  3.4900000000000D+00  0.0000000000000D+00  0.0000000000000D+00
351  3.5000000000000D+00  0.0000000000000D+00  0.0000000000000D+00
352  3.5100000000000D+00  0.0000000000000D+00  0.0000000000000D+00
353  3.5200000000000D+00  0.0000000000000D+00  0.0000000000000D+00
354  3.5300000000000D+00  0.0000000000000D+00  0.0000000000000D+00
355  3.5400000000000D+00  0.0000000000000D+00  0.0000000000000D+00
356  3.5500000000000D+00  0.0000000000000D+00  0.0000000000000D+00
357  3.5600000000000D+00  0.0000000000000D+00  0.0000000000000D+00
358  3.5700000000000D+00  0.0000000000000D+00  0.0000000000000D+00
359  3.5800000000000D+00  0.0000000000000D+00  0.0000000000000D+00
360  3.5900000000000D+00  0.0000000000000D+00  0.0000000000000D+00
361  3.6000000000000D+00  0.0000000000000D+00  0.0000000000000D+00
362  3.6100000000000D+00  0.0000000000000D+00  0.0000000000000D+00
363  3.6200000000000D+00  0.0000000000000D+00  0.0000000000000D+00
364  3.6300000000000D+00  0.0000000000000D+00  0.0000000000000D+00
365  3.6400000000000D+00  0.0000000000000D+00  0.0000000000000D+00
366  3.6500000000000D+00  0.0000000000000D+00  0.0000000000000D+00
367  3.6600000000000D+00  0.0000000000000D+00  0.0000000000000D+00
368  3.6700000000000D+00  0.0000000000000D+00  0.0000000000000D+00
369  3.6800000000000D+00  0.0000000000000D+00  0.0000000000000D+00
370  3.6900000000000D+00  0.0000000000000D+00  0.0000000000000D+00
371  3.7000000000000D+00  0.0000000000000D+00  0.0000000000000D+00
372  3.7100000000000D+00  0.0000000000000D+00  0.0000000000000D+00
373  3.7200000000000D+00  0.0000000000000D+00  0.0000000000000D+00
374  3.7300000000000D+00  0.0000000000000D+00  0.0000000000000D+00
375  3.7400000000000D+00  0.0000000000000D+00  0.0000000000000D+00
376  3.7500000000000D+00  0.0000000000000D+00  0.0000000000000D+00
377  3.7600000000000D+00  0.0000000000000D+00  0.0000000000000D+00
378  3.7700000000000D+00  0.0000000000000D+00  0.0000000000000D+00
379  3.7800000000000D+00  0.0000000000000D+00  0.0000000000000D+00
380  3.7900000000000D+00  0.0000000000000D+00  0.0000000000000D+00
381  3.8000000000000D+00  0.0000000000000D+00  0.0000000000000D+00
382  3.8100000000000D+00  0.0000000000000D+00  0.0000000000000D+00
383  3.8200000000000D+00  0.0000000000000D+00  0.0000000000000D+00
384  3.8300000000000D+00  0.0000000000000D+00  0.0000000000000D+00
385  3.8400000000000D+00  0.0000000000000D+00  0.0000000000000D+00
386  3.8500000000000D+00  0.0000000000000D+00  0.0000000000000D+00
387  3.8600000000000D+00  0.0000000000000D+00  0.0000000000000D+00
388  3.8700000000000D+00  0.0000000000000D+00  0.0000000000000D+00
389  3.8800000000000D+00  0.0000000000000D+00  0.0000000000000D+00
390  3.8900000000000D+00  0.0000000000000D+00  0.0000000000000D+00
391  3.9000000000000D+00  0.0000000000000D+00  0.0000000000000D+00
392  3.9100000000000D+00  0.0000000000000D+00  0.0000000000000D+00
393  3.9200000000000D+00  0.0000000000000D+00  0.0000000000000D+00
394  3.9300000000000D+00  0.0000000000000D+00  0.0000000000000D+00
395  3.9400000000000D+00  0.0000000000000D+00  0.0000000000000D+00
396  3.9500000000000D+00  0.0000000000000D+00  0.0000000000000D+00
397  3.9600000000000D+00  0.0000000000000D+00  0.0000000000000D+00
398  3.9700000000000D+00  0.0000000000000D+00  0.0000000000000D+00
399  3.9800000000000D+00  0.0000000000000D+00  0.0000000000000D+00
400  3.9900000000000D+00  0.0000000000000D+00  0.0000000000000D+00
401  4.0000000000000D+00  0.0000000000000D+00  0.0000000000000D+00
402  4.0100000000000D+00  0.0000000000000D+00  0.0000000000000D+00
403  4.0200000000000D+00  0.0000000000000D+00  0.0000000000000D+00
404  4.0300000000000D+00  0.0000000000000D+00  0.0000000000000D+00
405  4.0400000000000D+00  0.0000000000000D+00  0.0000000000000D+00
406  4.0500000000000D+00  0.0000000000000D+00  0.0000000000000D+00
407  4.0600000000000D+00  0.0000000000000D+00  0.0000000000000D+00
408  4.0700000000000D+00  0.0000000000000D+00  0.0000000000000D+00
409  4.0800000000000D+00  0.0000000000000D+00  0.0000000000000D+00
410  4.0900000000000D+00  0.0000000000000D+00  0.0000000000000D+00
411  4.1000000000000D+00  0.0000000000000D+00  0.0000000000000D+00
412  4.1100000000000D+00  0.0000000000000D+00  0.0000000000000D+00
413  4.1200000000000D+00  0.0000000000000D+00  0.0000000000000D+00
414  4.1300000000000D+00  0.0000000000000D+00  0.0000000000000D+00
415  4.1400000000000D+00  0.0000000000000D+00  0.0000000000000D+00
416  4.1500000000000D+00  0.0000000000000D+00  0.0000000000000D+00
417  4.1600000000000D+00  0.0000000000000D+00  0.0000000000000D+00
418  4.1700000000000D+00  0.0000000000000D+00  0.0000000000000D+00
419  4.1800000000000D+00  0.0000000000000D+00  0.0000000000000D+00
420  4.1900000000000D+00  0.0000000000000D+00  0.0000000000000D+00
421  4.2000000000000D+00  0.0000000000000D+00  0.0000000000000D+00
422  4.2100000000000D+00  0.0000000000000D+00  0.0000000000000D+00
423  4.2200000000000D+00  0.0000000000000D+00  0.0000000000000D+00
424  4.2300000000000D+00  0.0000000000000D+00  0.0000000000000D+00
425  4.2400000000000D+00  0.0000000000000D+00  0.0000000000000D+00
426  4.2500000000000D+00  0.0000000000000D+00  0.0000000000000D+00
427  4.2600000000000D+00  0.0000000000000D+00  0.0000000000000D+00
428  4.2700000000000D+00  0.0000000000000D+00  0.0000000000000D+00
429  4.2800000000000D+00  0.0000000000000D+00  0.0000000000000D+00
430  4.2900000000000D+00  0.0000000000000D+00  0.0000000000000D+00
431  4.3000000000000D+00  0.0000000000000D+00  0.0000000000000D+00
432  4.3100000000000D+00  0.0000000000000D+00  0.0000000000000D+00
433  4.3200000000000D+00  0.0000000000000D+00  0.0000000000000D+00
434  4.3300000000000D+00  0.0000000000000D+00  0.0000000000000D+00
435  4.3400000000000D+00  0.0000000000000D+00  0.0000000000000D+00
436  4.3500000000000D+00  0.0000000000000D+00  0.0000000000000D+00
437  4.3600000000000D+00  0.0000000000000D+00  0.0000000000000D+00
438  4.3700000000000D+00  0.0000000000000D+00  0.0000000000000D+00
439  4.3800000000000D+00  0.0000000000000D+00  0.0000000000000D+00
440  4.3900000000000D+00  0.0000000000000D+00  0.0000000000000D+00
441  4.4000000000000D+00  0.0000000000000D+00  0.0000000000000D+00
442  4.4100000000000D+00  0.0000000000000D+00  0.0000000000000D+00
443  4.4200000000000D+00  0.0000000000000D+00  0.0000000000000D+00