Y     ONCVPSP-3.3.0  r_core=   1.60520   1.51226   1.56736
39.0000     11.0000      180429    zatom,zion,pspd
8 -116133   2     4   600     0    pspcod,pspxc,lmax,lloc,mmax,r2well
5.99000000  4.00000000  0.00000000    rchrg fchrg qchrg
2     3     3     0    nproj
3     1           extension_switch
4     4     0    nprojso
0                         8.6526424440081D-01  1.0128938622761D+01
1  0.0000000000000D+00 -2.5718725760182D-10  7.0475569824424D-11
2  1.0000000000000D-02 -9.4239606938800D-03  4.9071170807529D-02
3  2.0000000000000D-02 -1.8905545604387D-02  9.8108547696533D-02
4  3.0000000000000D-02 -2.8501415391197D-02  1.4707813099193D-01
5  4.0000000000000D-02 -3.8266312194149D-02  1.9594551181542D-01
6  5.0000000000000D-02 -4.8252121793031D-02  2.4467567324062D-01
7  6.0000000000000D-02 -5.8506961288263D-02  2.9323279830623D-01
8  7.0000000000000D-02 -6.9074300506163D-02  3.4158008709015D-01
9  8.0000000000000D-02 -7.9992125075299D-02  3.8967958497692D-01
10  9.0000000000000D-02 -9.1292148802051D-02  4.3749202416354D-01
11  1.0000000000000D-01 -1.0299908259669D-01  4.8497668034573D-01
12  1.1000000000000D-01 -1.1512996676792D-01  5.3209124640756D-01
13  1.2000000000000D-01 -1.2769357301754D-01  5.7879172480434D-01
14  1.3000000000000D-01 -1.4068988193060D-01  6.2503234018157D-01
15  1.4000000000000D-01 -1.5410964117433D-01  6.7076547361324D-01
16  1.5000000000000D-01 -1.6793400899462D-01  7.1594161967159D-01
17  1.6000000000000D-01 -1.8213428693708D-01  7.6050936735904D-01
18  1.7000000000000D-01 -1.9667174502479D-01  8.0441540574255D-01
19  1.8000000000000D-01 -2.1149754190164D-01  8.4760455493238D-01
20  1.9000000000000D-01 -2.2655274170469D-01  8.9001982284274D-01
21  2.0000000000000D-01 -2.4176842866486D-01  9.3160248796268D-01
22  2.1000000000000D-01 -2.5706591965997D-01  9.7229220815238D-01
23  2.2000000000000D-01 -2.7235707416174D-01  1.0120271552661D+00
24  2.3000000000000D-01 -2.8754470023513D-01  1.0507441751879D+00
25  2.4000000000000D-01 -3.0252305447021D-01  1.0883789726518D+00
26  2.5000000000000D-01 -3.1717843295913D-01  1.1248663200102D+00
27  2.6000000000000D-01 -3.3138984967910D-01  1.1601402889045D+00
28  2.7000000000000D-01 -3.4502979791315D-01  1.1941345035934D+00
29  2.8000000000000D-01 -3.5796508963834D-01  1.2267824145028D+00
30  2.9000000000000D-01 -3.7005776714174D-01  1.2580175903743D+00
31  3.0000000000000D-01 -3.8116608049394D-01  1.2877740272179D+00
32  3.1000000000000D-01 -3.9114552392144D-01  1.3159864721120D+00
33  3.2000000000000D-01 -3.9984992357892D-01  1.3425907597450D+00
34  3.3000000000000D-01 -4.0713256873495D-01  1.3675241594578D+00
35  3.4000000000000D-01 -4.1284737795187D-01  1.3907257304268D+00
36  3.5000000000000D-01 -4.1685009146980D-01  1.4121366825256D+00
37  3.6000000000000D-01 -4.1899948069530D-01  1.4317007403151D+00
38  3.7000000000000D-01 -4.1915856545345D-01  1.4493645075465D+00
39  3.8000000000000D-01 -4.1719582948854D-01  1.4650778295106D+00
40  3.9000000000000D-01 -4.1298642459503D-01  1.4787941505378D+00
41  4.0000000000000D-01 -4.0641335373034D-01  1.4904708639432D+00
42  4.1000000000000D-01 -3.9736862350293D-01  1.5000696517205D+00
43  4.2000000000000D-01 -3.8575435654522D-01  1.5075568113181D+00
44  4.3000000000000D-01 -3.7148385446993D-01  1.5129035668807D+00
45  4.4000000000000D-01 -3.5448260237129D-01  1.5160863624101D+00
46  4.5000000000000D-01 -3.3468920616587D-01  1.5170871343871D+00
47  4.6000000000000D-01 -3.1205625447183D-01  1.5158935615063D+00
48  4.7000000000000D-01 -2.8655109719722D-01  1.5124992893010D+00
49  4.8000000000000D-01 -2.5815653354361D-01  1.5069041275815D+00
50  4.9000000000000D-01 -2.2687140273019D-01  1.4991142187719D+00
51  5.0000000000000D-01 -1.9271107139828D-01  1.4891421754073D+00
52  5.1000000000000D-01 -1.5570781236555D-01  1.4770071852468D+00
53  5.2000000000000D-01 -1.1591107015710D-01  1.4627350826628D+00
54  5.3000000000000D-01 -7.3387609541285D-02  1.4463583851869D+00
55  5.4000000000000D-01 -2.8221544136710D-02  1.4279162943185D+00
56  5.5000000000000D-01  1.9485756971102D-02  1.4074546599443D+00
57  5.6000000000000D-01  6.9615885770693D-02  1.3850259079584D+00
58  5.7000000000000D-01  1.2203373527318D-01  1.3606889309253D+00
59  5.8000000000000D-01  1.7658796219200D-01  1.3345089418842D+00
60  5.9000000000000D-01  2.3311157074427D-01  1.3065572916466D+00
61  6.0000000000000D-01  2.9142261503358D-01  1.2769112501998D+00
62  6.1000000000000D-01  3.5132501655051D-01  1.2456537530812D+00
63  6.2000000000000D-01  4.1260949242483D-01  1.2128731138421D+00
64  6.3000000000000D-01  4.7505458917628D-01  1.1786627039633D+00
65  6.4000000000000D-01  5.3842781586325D-01  1.1431206018252D+00
66  6.5000000000000D-01  6.0248686971218D-01  1.1063492125621D+00
67  6.6000000000000D-01  6.6698094653875D-01  1.0684548608509D+00
68  6.7000000000000D-01  7.3165212755631D-01  1.0295473588856D+00
69  6.8000000000000D-01  7.9623683349947D-01  9.8973955198296D-01
70  6.9000000000000D-01  8.6046733639333D-01  9.4914684443664D-01
71  7.0000000000000D-01  9.2407331876456D-01  9.0788670839408D-01
72  7.1000000000000D-01  9.8678346963310D-01  8.6607817866883D-01
73  7.2000000000000D-01  1.0483271062378D+00  8.2384133651795D-01
74  7.3000000000000D-01  1.1084358101504D+00  7.8129678551048D-01
75  7.4000000000000D-01  1.1668450662142D+00  7.3856512268758D-01
76  7.5000000000000D-01  1.2232958926131D+00  6.9576640826617D-01
77  7.6000000000000D-01  1.2775364503368D+00  6.5301963716588D-01
78  7.7000000000000D-01  1.3293236203543D+00  6.1044221564366D-01
79  7.8000000000000D-01  1.3784245369502D+00  5.6814944630031D-01
80  7.9000000000000D-01  1.4246180659051D+00  5.2625402467961D-01
81  8.0000000000000D-01  1.4676962165236D+00  4.8486555061289D-01
82  8.1000000000000D-01  1.5074654769182D+00  4.4409005737089D-01
83  8.2000000000000D-01  1.5437480624529D+00  4.0402956157024D-01
84  8.3000000000000D-01  1.5763830678237D+00  3.6478163664598D-01
85  8.4000000000000D-01  1.6052275139082D+00  3.2643901254312D-01
86  8.5000000000000D-01  1.6301572812462D+00  2.8908920410279D-01
87  8.6000000000000D-01  1.6510679228086D+00  2.5281417042126D-01
88  8.7000000000000D-01  1.6678753495744D+00  2.1769000724544D-01
89  8.8000000000000D-01  1.6805163833550D+00  1.8378667423799D-01
90  8.9000000000000D-01  1.6889491722694D+00  1.5116775870047D-01
91  9.0000000000000D-01  1.6931534652911D+00  1.1989027708533D-01
92  9.1000000000000D-01  1.6931307433283D+00  9.0004515359862D-02
93  9.2000000000000D-01  1.6889042053775D+00  6.1553909009274D-02
94  9.3000000000000D-01  1.6805186093786D+00  3.4574963183116D-02
95  9.4000000000000D-01  1.6680399685047D+00  9.0972132030644D-03
96  9.5000000000000D-01  1.6515551047214D+00 -1.4856774638483D-02
97  9.6000000000000D-01  1.6311710625440D+00 -3.7271362346959D-02
98  9.7000000000000D-01  1.6070143870097D+00 -5.8137760207374D-02
99  9.8000000000000D-01  1.5792302709108D+00 -7.7453908398695D-02
100  9.9000000000000D-01  1.5479815773782D+00 -9.5224321440643D-02
101  1.0000000000000D+00  1.5134477448664D+00 -1.1145989693191D-01
102  1.0100000000000D+00  1.4758235825150D+00 -1.2617769029076D-01
103  1.0200000000000D+00  1.4353179647255D+00 -1.3940065744724D-01
104  1.0300000000000D+00  1.3921524345886D+00 -1.5115736765758D-01
105  1.0400000000000D+00  1.3465597265316D+00 -1.6148168882020D-01
106  1.0500000000000D+00  1.2987822191549D+00 -1.7041244784497D-01
107  1.0600000000000D+00  1.2490703298444D+00 -1.7799306881020D-01
108  1.0700000000000D+00  1.1976808631611D+00 -1.8427119176956D-01
109  1.0800000000000D+00  1.1448753253957D+00 -1.8929827519517D-01
110  1.0900000000000D+00  1.0909182179366D+00 -1.9312918513720D-01
111  1.1000000000000D+00  1.0360753222635D+00 -1.9582177424367D-01
112  1.1100000000000D+00  9.8061198944996D-01 -1.9743645383674D-01
113  1.1200000000000D+00  9.2479144700270D-01 -1.9803576225016D-01
114  1.1300000000000D+00  8.6887313568427D-01 -1.9768393261992D-01
115  1.1400000000000D+00  8.1311108876421D-01 -1.9644646329206D-01
116  1.1500000000000D+00  7.5775236574463D-01 -1.9438969394477D-01
117  1.1600000000000D+00  7.0303555214813D-01 -1.9158039043238D-01
118  1.1700000000000D+00  6.4918933630244D-01 -1.8808534122541D-01
119  1.1800000000000D+00  5.9643117363646D-01 -1.8397096823486D-01
120  1.1900000000000D+00  5.4496604799973D-01 -1.7930295459386D-01
121  1.2000000000000D+00  4.9498533877024D-01 -1.7414589180344D-01
122  1.2100000000000D+00  4.4666580158462D-01 -1.6856294844135D-01
123  1.2200000000000D+00  4.0016866977880D-01 -1.6261556246678D-01
124  1.2300000000000D+00  3.5563888219033D-01 -1.5636315882445D-01
125  1.2400000000000D+00  3.1320444188206D-01 -1.4986289379798D-01
126  1.2500000000000D+00  2.7297590997599D-01 -1.4316942747894D-01
127  1.2600000000000D+00  2.3504603651760D-01 -1.3633472518808D-01
128  1.2700000000000D+00  1.9948952946823D-01 -1.2940788848769D-01
129  1.2800000000000D+00  1.6636296250050D-01 -1.2243501632730D-01
130  1.2900000000000D+00  1.3570481982140D-01 -1.1545909628290D-01
131  1.3000000000000D+00  1.0753567533855D-01 -1.0851992562762D-01
132  1.3100000000000D+00  8.1858503451588D-02 -1.0165406196801D-01
133  1.3200000000000D+00  5.8659115770287D-02 -9.4894802460460D-02
134  1.3300000000000D+00  3.7906717773770D-02 -8.8272190547507D-02
135  1.3400000000000D+00  1.9554579241069D-02 -8.1813049114416D-02
136  1.3500000000000D+00  3.5408091572716D-03 -7.5541038198078D-02
137  1.3600000000000D+00 -1.0210773391929D-02 -6.9476735574685D-02
138  1.3700000000000D+00 -2.1789682142552D-02 -6.3637738233933D-02
139  1.3800000000000D+00 -3.1297732122474D-02 -5.8038782256717D-02
140  1.3900000000000D+00 -3.8847944224599D-02 -5.2691878912366D-02
141  1.4000000000000D+00 -4.4563398870446D-02 -4.7606464177012D-02
142  1.4100000000000D+00 -4.8576051407017D-02 -4.2789558943948D-02
143  1.4200000000000D+00 -5.1025522123901D-02 -3.8245937157059D-02
144  1.4300000000000D+00 -5.2057875058042D-02 -3.3978298725070D-02
145  1.4400000000000D+00 -5.1824398819396D-02 -2.9987444342012D-02
146  1.4500000000000D+00 -5.0480403862768D-02 -2.6272449000408D-02
147  1.4600000000000D+00 -4.8184051001100D-02 -2.2830830946798D-02
148  1.4700000000000D+00 -4.5095225159637D-02 -1.9658712955692D-02
149  1.4800000000000D+00 -4.1374466353891D-02 -1.6750972972707D-02
150  1.4900000000000D+00 -3.7181916734421D-02 -1.4101393158529D-02
151  1.5000000000000D+00 -3.2676205050920D-02 -1.1702819924633D-02
152  1.5100000000000D+00 -2.8014828234156D-02 -9.5470284582378D-03
153  1.5200000000000D+00 -2.3351564148196D-02 -7.6251753741259D-03
154  1.5300000000000D+00 -1.8832120629969D-02 -5.9285919492172D-03
155  1.5400000000000D+00 -1.4590320647613D-02 -4.4495224972869D-03
156  1.5500000000000D+00 -1.0743831494101D-02 -3.1822296029446D-03
157  1.5600000000000D+00 -7.3940275466286D-03 -2.1230777577656D-03
158  1.5700000000000D+00 -4.6079110460466D-03 -1.2668716979153D-03
159  1.5800000000000D+00 -2.4625474639950D-03 -6.1659309063323D-04
160  1.5900000000000D+00 -1.0745204446805D-03 -1.8596245531618D-04
161  1.6000000000000D+00 -3.8327303208284D-04  3.2637767090567D-05
162  1.6100000000000D+00 -1.0509051270160D-04  7.6774178448373D-05
163  1.6200000000000D+00 -1.2248441139993D-05  2.6124095935361D-05
164  1.6300000000000D+00  2.5918524541645D-06 -1.2651158912870D-05
165  1.6400000000000D+00  1.7938336980363D-07 -7.2733767910659D-06
166  1.6500000000000D+00 -1.2618403535335D-06  2.5793371469547D-06
167  1.6600000000000D+00 -5.9754550781516D-07  1.4965020022611D-06
168  1.6700000000000D+00  5.2574173147566D-07 -1.8824680116160D-07
169  1.6800000000000D+00  3.0542110405604D-07 -1.0935891599173D-07
170  1.6900000000000D+00  0.0000000000000D+00  0.0000000000000D+00
171  1.7000000000000D+00  0.0000000000000D+00  0.0000000000000D+00
172  1.7100000000000D+00  0.0000000000000D+00  0.0000000000000D+00
173  1.7200000000000D+00  0.0000000000000D+00  0.0000000000000D+00
174  1.7300000000000D+00  0.0000000000000D+00  0.0000000000000D+00
175  1.7400000000000D+00  0.0000000000000D+00  0.0000000000000D+00
176  1.7500000000000D+00  0.0000000000000D+00  0.0000000000000D+00
177  1.7600000000000D+00  0.0000000000000D+00  0.0000000000000D+00
178  1.7700000000000D+00  0.0000000000000D+00  0.0000000000000D+00
179  1.7800000000000D+00  0.0000000000000D+00  0.0000000000000D+00
180  1.7900000000000D+00  0.0000000000000D+00  0.0000000000000D+00
181  1.8000000000000D+00  0.0000000000000D+00  0.0000000000000D+00
182  1.8100000000000D+00  0.0000000000000D+00  0.0000000000000D+00
183  1.8200000000000D+00  0.0000000000000D+00  0.0000000000000D+00
184  1.8300000000000D+00  0.0000000000000D+00  0.0000000000000D+00
185  1.8400000000000D+00  0.0000000000000D+00  0.0000000000000D+00
186  1.8500000000000D+00  0.0000000000000D+00  0.0000000000000D+00
187  1.8600000000000D+00  0.0000000000000D+00  0.0000000000000D+00
188  1.8700000000000D+00  0.0000000000000D+00  0.0000000000000D+00
189  1.8800000000000D+00  0.0000000000000D+00  0.0000000000000D+00
190  1.8900000000000D+00  0.0000000000000D+00  0.0000000000000D+00
191  1.9000000000000D+00  0.0000000000000D+00  0.0000000000000D+00
192  1.9100000000000D+00  0.0000000000000D+00  0.0000000000000D+00
193  1.9200000000000D+00  0.0000000000000D+00  0.0000000000000D+00
194  1.9300000000000D+00  0.0000000000000D+00  0.0000000000000D+00
195  1.9400000000000D+00  0.0000000000000D+00  0.0000000000000D+00
196  1.9500000000000D+00  0.0000000000000D+00  0.0000000000000D+00
197  1.9600000000000D+00  0.0000000000000D+00  0.0000000000000D+00
198  1.9700000000000D+00  0.0000000000000D+00  0.0000000000000D+00
199  1.9800000000000D+00  0.0000000000000D+00  0.0000000000000D+00
200  1.9900000000000D+00  0.0000000000000D+00  0.0000000000000D+00
201  2.0000000000000D+00  0.0000000000000D+00  0.0000000000000D+00
202  2.0100000000000D+00  0.0000000000000D+00  0.0000000000000D+00
203  2.0200000000000D+00  0.0000000000000D+00  0.0000000000000D+00
204  2.0300000000000D+00  0.0000000000000D+00  0.0000000000000D+00
205  2.0400000000000D+00  0.0000000000000D+00  0.0000000000000D+00
206  2.0500000000000D+00  0.0000000000000D+00  0.0000000000000D+00
207  2.0600000000000D+00  0.0000000000000D+00  0.0000000000000D+00
208  2.0700000000000D+00  0.0000000000000D+00  0.0000000000000D+00
209  2.0800000000000D+00  0.0000000000000D+00  0.0000000000000D+00
210  2.0900000000000D+00  0.0000000000000D+00  0.0000000000000D+00
211  2.1000000000000D+00  0.0000000000000D+00  0.0000000000000D+00
212  2.1100000000000D+00  0.0000000000000D+00  0.0000000000000D+00
213  2.1200000000000D+00  0.0000000000000D+00  0.0000000000000D+00
214  2.1300000000000D+00  0.0000000000000D+00  0.0000000000000D+00
215  2.1400000000000D+00  0.0000000000000D+00  0.0000000000000D+00
216  2.1500000000000D+00  0.0000000000000D+00  0.0000000000000D+00
217  2.1600000000000D+00  0.0000000000000D+00  0.0000000000000D+00
218  2.1700000000000D+00  0.0000000000000D+00  0.0000000000000D+00
219  2.1800000000000D+00  0.0000000000000D+00  0.0000000000000D+00
220  2.1900000000000D+00  0.0000000000000D+00  0.0000000000000D+00
221  2.2000000000000D+00  0.0000000000000D+00  0.0000000000000D+00
222  2.2100000000000D+00  0.0000000000000D+00  0.0000000000000D+00
223  2.2200000000000D+00  0.0000000000000D+00  0.0000000000000D+00
224  2.2300000000000D+00  0.0000000000000D+00  0.0000000000000D+00
225  2.2400000000000D+00  0.0000000000000D+00  0.0000000000000D+00
226  2.2500000000000D+00  0.0000000000000D+00  0.0000000000000D+00
227  2.2600000000000D+00  0.0000000000000D+00  0.0000000000000D+00
228  2.2700000000000D+00  0.0000000000000D+00  0.0000000000000D+00
229  2.2800000000000D+00  0.0000000000000D+00  0.0000000000000D+00
230  2.2900000000000D+00  0.0000000000000D+00  0.0000000000000D+00
231  2.3000000000000D+00  0.0000000000000D+00  0.0000000000000D+00
232  2.3100000000000D+00  0.0000000000000D+00  0.0000000000000D+00
233  2.3200000000000D+00  0.0000000000000D+00  0.0000000000000D+00
234  2.3300000000000D+00  0.0000000000000D+00  0.0000000000000D+00
235  2.3400000000000D+00  0.0000000000000D+00  0.0000000000000D+00
236  2.3500000000000D+00  0.0000000000000D+00  0.0000000000000D+00
237  2.3600000000000D+00  0.0000000000000D+00  0.0000000000000D+00
238  2.3700000000000D+00  0.0000000000000D+00  0.0000000000000D+00
239  2.3800000000000D+00  0.0000000000000D+00  0.0000000000000D+00
240  2.3900000000000D+00  0.0000000000000D+00  0.0000000000000D+00
241  2.4000000000000D+00  0.0000000000000D+00  0.0000000000000D+00
242  2.4100000000000D+00  0.0000000000000D+00  0.0000000000000D+00
243  2.4200000000000D+00  0.0000000000000D+00  0.0000000000000D+00
244  2.4300000000000D+00  0.0000000000000D+00  0.0000000000000D+00
245  2.4400000000000D+00  0.0000000000000D+00  0.0000000000000D+00
246  2.4500000000000D+00  0.0000000000000D+00  0.0000000000000D+00
247  2.4600000000000D+00  0.0000000000000D+00  0.0000000000000D+00
248  2.4700000000000D+00  0.0000000000000D+00  0.0000000000000D+00
249  2.4800000000000D+00  0.0000000000000D+00  0.0000000000000D+00
250  2.4900000000000D+00  0.0000000000000D+00  0.0000000000000D+00
251  2.5000000000000D+00  0.0000000000000D+00  0.0000000000000D+00
252  2.5100000000000D+00  0.0000000000000D+00  0.0000000000000D+00
253  2.5200000000000D+00  0.0000000000000D+00  0.0000000000000D+00
254  2.5300000000000D+00  0.0000000000000D+00  0.0000000000000D+00
255  2.5400000000000D+00  0.0000000000000D+00  0.0000000000000D+00
256  2.5500000000000D+00  0.0000000000000D+00  0.0000000000000D+00
257  2.5600000000000D+00  0.0000000000000D+00  0.0000000000000D+00
258  2.5700000000000D+00  0.0000000000000D+00  0.0000000000000D+00
259  2.5800000000000D+00  0.0000000000000D+00  0.0000000000000D+00
260  2.5900000000000D+00  0.0000000000000D+00  0.0000000000000D+00
261  2.6000000000000D+00  0.0000000000000D+00  0.0000000000000D+00
262  2.6100000000000D+00  0.0000000000000D+00  0.0000000000000D+00
263  2.6200000000000D+00  0.0000000000000D+00  0.0000000000000D+00
264  2.6300000000000D+00  0.0000000000000D+00  0.0000000000000D+00
265  2.6400000000000D+00  0.0000000000000D+00  0.0000000000000D+00
266  2.6500000000000D+00  0.0000000000000D+00  0.0000000000000D+00
267  2.6600000000000D+00  0.0000000000000D+00  0.0000000000000D+00
268  2.6700000000000D+00  0.0000000000000D+00  0.0000000000000D+00
269  2.6800000000000D+00  0.0000000000000D+00  0.0000000000000D+00
270  2.6900000000000D+00  0.0000000000000D+00  0.0000000000000D+00
271  2.7000000000000D+00  0.0000000000000D+00  0.0000000000000D+00
272  2.7100000000000D+00  0.0000000000000D+00  0.0000000000000D+00
273  2.7200000000000D+00  0.0000000000000D+00  0.0000000000000D+00
274  2.7300000000000D+00  0.0000000000000D+00  0.0000000000000D+00
275  2.7400000000000D+00  0.0000000000000D+00  0.0000000000000D+00
276  2.7500000000000D+00  0.0000000000000D+00  0.0000000000000D+00
277  2.7600000000000D+00  0.0000000000000D+00  0.0000000000000D+00
278  2.7700000000000D+00  0.0000000000000D+00  0.0000000000000D+00
279  2.7800000000000D+00  0.0000000000000D+00  0.0000000000000D+00
280  2.7900000000000D+00  0.0000000000000D+00  0.0000000000000D+00
281  2.8000000000000D+00  0.0000000000000D+00  0.0000000000000D+00
282  2.8100000000000D+00  0.0000000000000D+00  0.0000000000000D+00
283  2.8200000000000D+00  0.0000000000000D+00  0.0000000000000D+00
284  2.8300000000000D+00  0.0000000000000D+00  0.0000000000000D+00
285  2.8400000000000D+00  0.0000000000000D+00  0.0000000000000D+00
286  2.8500000000000D+00  0.0000000000000D+00  0.0000000000000D+00
287  2.8600000000000D+00  0.0000000000000D+00  0.0000000000000D+00
288  2.8700000000000D+00  0.0000000000000D+00  0.0000000000000D+00
289  2.8800000000000D+00  0.0000000000000D+00  0.0000000000000D+00
290  2.8900000000000D+00  0.0000000000000D+00  0.0000000000000D+00
291  2.9000000000000D+00  0.0000000000000D+00  0.0000000000000D+00
292  2.9100000000000D+00  0.0000000000000D+00  0.0000000000000D+00
293  2.9200000000000D+00  0.0000000000000D+00  0.0000000000000D+00
294  2.9300000000000D+00  0.0000000000000D+00  0.0000000000000D+00
295  2.9400000000000D+00  0.0000000000000D+00  0.0000000000000D+00
296  2.9500000000000D+00  0.0000000000000D+00  0.0000000000000D+00
297  2.9600000000000D+00  0.0000000000000D+00  0.0000000000000D+00
298  2.9700000000000D+00  0.0000000000000D+00  0.0000000000000D+00
299  2.9800000000000D+00  0.0000000000000D+00  0.0000000000000D+00
300  2.9900000000000D+00  0.0000000000000D+00  0.0000000000000D+00
301  3.0000000000000D+00  0.0000000000000D+00  0.0000000000000D+00
302  3.0100000000000D+00  0.0000000000000D+00  0.0000000000000D+00
303  3.0200000000000D+00  0.0000000000000D+00  0.0000000000000D+00
304  3.0300000000000D+00  0.0000000000000D+00  0.0000000000000D+00
305  3.0400000000000D+00  0.0000000000000D+00  0.0000000000000D+00
306  3.0500000000000D+00  0.0000000000000D+00  0.0000000000000D+00
307  3.0600000000000D+00  0.0000000000000D+00  0.0000000000000D+00
308  3.0700000000000D+00  0.0000000000000D+00  0.0000000000000D+00
309  3.0800000000000D+00  0.0000000000000D+00  0.0000000000000D+00
310  3.0900000000000D+00  0.0000000000000D+00  0.0000000000000D+00
311  3.1000000000000D+00  0.0000000000000D+00  0.0000000000000D+00
312  3.1100000000000D+00  0.0000000000000D+00  0.0000000000000D+00
313  3.1200000000000D+00  0.0000000000000D+00  0.0000000000000D+00
314  3.1300000000000D+00  0.0000000000000D+00  0.0000000000000D+00
315  3.1400000000000D+00  0.0000000000000D+00  0.0000000000000D+00
316  3.1500000000000D+00  0.0000000000000D+00  0.0000000000000D+00
317  3.1600000000000D+00  0.0000000000000D+00  0.0000000000000D+00
318  3.1700000000000D+00  0.0000000000000D+00  0.0000000000000D+00
319  3.1800000000000D+00  0.0000000000000D+00  0.0000000000000D+00
320  3.1900000000000D+00  0.0000000000000D+00  0.0000000000000D+00
321  3.2000000000000D+00  0.0000000000000D+00  0.0000000000000D+00
322  3.2100000000000D+00  0.0000000000000D+00  0.0000000000000D+00
323  3.2200000000000D+00  0.0000000000000D+00  0.0000000000000D+00
324  3.2300000000000D+00  0.0000000000000D+00  0.0000000000000D+00
325  3.2400000000000D+00  0.0000000000000D+00  0.0000000000000D+00
326  3.2500000000000D+00  0.0000000000000D+00  0.0000000000000D+00
327  3.2600000000000D+00  0.0000000000000D+00  0.0000000000000D+00
328  3.2700000000000D+00  0.0000000000000D+00  0.0000000000000D+00
329  3.2800000000000D+00  0.0000000000000D+00  0.0000000000000D+00
330  3.2900000000000D+00  0.0000000000000D+00  0.0000000000000D+00
331  3.3000000000000D+00  0.0000000000000D+00  0.0000000000000D+00
332  3.3100000000000D+00  0.0000000000000D+00  0.0000000000000D+00
333  3.3200000000000D+00  0.0000000000000D+00  0.0000000000000D+00
334  3.3300000000000D+00  0.0000000000000D+00  0.0000000000000D+00
335  3.3400000000000D+00  0.0000000000000D+00  0.0000000000000D+00
336  3.3500000000000D+00  0.0000000000000D+00  0.0000000000000D+00
337  3.3600000000000D+00  0.0000000000000D+00  0.0000000000000D+00
338  3.3700000000000D+00  0.0000000000000D+00  0.0000000000000D+00
339  3.3800000000000D+00  0.0000000000000D+00  0.0000000000000D+00
340  3.3900000000000D+00  0.0000000000000D+00  0.0000000000000D+00
341  3.4000000000000D+00  0.0000000000000D+00  0.0000000000000D+00
342  3.4100000000000D+00  0.0000000000000D+00  0.0000000000000D+00
343  3.4200000000000D+00  0.0000000000000D+00  0.0000000000000D+00
344  3.4300000000000D+00  0.0000000000000D+00  0.0000000000000D+00
345  3.4400000000000D+00  0.0000000000000D+00  0.0000000000000D+00
346  3.4500000000000D+00  0.0000000000000D+00  0.0000000000000D+00
347  3.4600000000000D+00  0.0000000000000D+00  0.0000000000000D+00
348  3.4700000000000D+00  0.0000000000000D+00  0.0000000000000D+00
349  3.4800000000000D+00  0.0000000000000D+00  0.0000000000000D+00
350  3.4900000000000D+00  0.0000000000000D+00  0.0000000000000D+00
351  3.5000000000000D+00  0.0000000000000D+00  0.0000000000000D+00
352  3.5100000000000D+00  0.0000000000000D+00  0.0000000000000D+00
353  3.5200000000000D+00  0.0000000000000D+00  0.0000000000000D+00
354  3.5300000000000D+00  0.0000000000000D+00  0.0000000000000D+00
355  3.5400000000000D+00  0.0000000000000D+00  0.0000000000000D+00
356  3.5500000000000D+00  0.0000000000000D+00  0.0000000000000D+00
357  3.5600000000000D+00  0.0000000000000D+00  0.0000000000000D+00
358  3.5700000000000D+00  0.0000000000000D+00  0.0000000000000D+00
359  3.5800000000000D+00  0.0000000000000D+00  0.0000000000000D+00
360  3.5900000000000D+00  0.0000000000000D+00  0.0000000000000D+00
361  3.6000000000000D+00  0.0000000000000D+00  0.0000000000000D+00
362  3.6100000000000D+00  0.0000000000000D+00  0.0000000000000D+00
363  3.6200000000000D+00  0.0000000000000D+00  0.0000000000000D+00
364  3.6300000000000D+00  0.0000000000000D+00  0.0000000000000D+00
365  3.6400000000000D+00  0.0000000000000D+00  0.0000000000000D+00
366  3.6500000000000D+00  0.0000000000000D+00  0.0000000000000D+00
367  3.6600000000000D+00  0.0000000000000D+00  0.0000000000000D+00
368  3.6700000000000D+00  0.0000000000000D+00  0.0000000000000D+00
369  3.6800000000000D+00  0.0000000000000D+00  0.0000000000000D+00
370  3.6900000000000D+00  0.0000000000000D+00  0.0000000000000D+00
371  3.7000000000000D+00  0.0000000000000D+00  0.0000000000000D+00
372  3.7100000000000D+00  0.0000000000000D+00  0.0000000000000D+00
373  3.7200000000000D+00  0.0000000000000D+00  0.0000000000000D+00
374  3.7300000000000D+00  0.0000000000000D+00  0.0000000000000D+00
375  3.7400000000000D+00  0.0000000000000D+00  0.0000000000000D+00
376  3.7500000000000D+00  0.0000000000000D+00  0.0000000000000D+00
377  3.7600000000000D+00  0.0000000000000D+00  0.0000000000000D+00
378  3.7700000000000D+00  0.0000000000000D+00  0.0000000000000D+00
379  3.7800000000000D+00  0.0000000000000D+00  0.0000000000000D+00
380  3.7900000000000D+00  0.0000000000000D+00  0.0000000000000D+00
381  3.8000000000000D+00  0.0000000000000D+00  0.0000000000000D+00
382  3.8100000000000D+00  0.0000000000000D+00  0.0000000000000D+00
383  3.8200000000000D+00  0.0000000000000D+00  0.0000000000000D+00
384  3.8300000000000D+00  0.0000000000000D+00  0.0000000000000D+00
385  3.8400000000000D+00  0.0000000000000D+00  0.0000000000000D+00
386  3.8500000000000D+00  0.0000000000000D+00  0.0000000000000D+00
387  3.8600000000000D+00  0.0000000000000D+00  0.0000000000000D+00
388  3.8700000000000D+00  0.0000000000000D+00  0.0000000000000D+00
389  3.8800000000000D+00  0.0000000000000D+00  0.0000000000000D+00
390  3.8900000000000D+00  0.0000000000000D+00  0.0000000000000D+00
391  3.9000000000000D+00  0.0000000000000D+00  0.0000000000000D+00
392  3.9100000000000D+00  0.0000000000000D+00  0.0000000000000D+00
393  3.9200000000000D+00  0.0000000000000D+00  0.0000000000000D+00
394  3.9300000000000D+00  0.0000000000000D+00  0.0000000000000D+00
395  3.9400000000000D+00  0.0000000000000D+00  0.0000000000000D+00
396  3.9500000000000D+00  0.0000000000000D+00  0.0000000000000D+00
397  3.9600000000000D+00  0.0000000000000D+00  0.0000000000000D+00
398  3.9700000000000D+00  0.0000000000000D+00  0.0000000000000D+00
399  3.9800000000000D+00  0.0000000000000D+00  0.0000000000000D+00
400  3.9900000000000D+00  0.0000000000000D+00  0.0000000000000D+00
401  4.0000000000000D+00  0.0000000000000D+00  0.0000000000000D+00
402  4.0100000000000D+00  0.0000000000000D+00  0.0000000000000D+00
403  4.0200000000000D+00  0.0000000000000D+00  0.0000000000000D+00
404  4.0300000000000D+00  0.0000000000000D+00  0.0000000000000D+00
405  4.0400000000000D+00  0.0000000000000D+00  0.0000000000000D+00
406  4.0500000000000D+00  0.0000000000000D+00  0.0000000000000D+00
407  4.0600000000000D+00  0.0000000000000D+00  0.0000000000000D+00
408  4.0700000000000D+00  0.0000000000000D+00  0.0000000000000D+00
409  4.0800000000000D+00  0.0000000000000D+00  0.0000000000000D+00
410  4.0900000000000D+00  0.0000000000000D+00  0.0000000000000D+00
411  4.1000000000000D+00  0.0000000000000D+00  0.0000000000000D+00
412  4.1100000000000D+00  0.0000000000000D+00  0.0000000000000D+00
413  4.1200000000000D+00  0.0000000000000D+00  0.0000000000000D+00
414  4.1300000000000D+00  0.0000000000000D+00  0.0000000000000D+00
415  4.1400000000000D+00  0.0000000000000D+00  0.0000000000000D+00
416  4.1500000000000D+00  0.0000000000000D+00  0.0000000000000D+00
417  4.1600000000000D+00  0.0000000000000D+00  0.0000000000000D+00
418  4.1700000000000D+00  0.0000000000000D+00  0.0000000000000D+00
419  4.1800000000000D+00  0.0000000000000D+00  0.0000000000000D+00
420  4.1900000000000D+00  0.0000000000000D+00  0.0000000000000D+00
421  4.2000000000000D+00  0.0000000000000D+00  0.0000000000000D+00
422  4.2100000000000D+00  0.0000000000000D+00  0.0000000000000D+00
423  4.2200000000000D+00  0.0000000000000D+00  0.0000000000000D+00
424  4.2300000000000D+00  0.0000000000000D+00  0.0000000000000D+00
425  4.2400000000000D+00  0.0000000000000D+00  0.0000000000000D+00
426  4.2500000000000D+00  0.0000000000000D+00  0.0000000000000D+00
427  4.2600000000000D+00  0.0000000000000D+00  0.0000000000000D+00
428  4.2700000000000D+00  0.0000000000000D+00  0.0000000000000D+00
429  4.2800000000000D+00  0.0000000000000D+00  0.0000000000000D+00
430  4.2900000000000D+00  0.0000000000000D+00  0.0000000000000D+00
431  4.3000000000000D+00  0.0000000000000D+00  0.0000000000000D+00
432  4.3100000000000D+00  0.0000000000000D+00  0.0000000000000D+00
433  4.3200000000000D+00  0.0000000000000D+00  0.0000000000000D+00
434  4.3300000000000D+00  0.0000000000000D+00  0.0000000000000D+00
435  4.3400000000000D+00  0.0000000000000D+00  0.0000000000000D+00
436  4.3500000000000D+00  0.0000000000000D+00  0.0000000000000D+00
437  4.3600000000000D+00  0.0000000000000D+00  0.0000000000000D+00
438  4.3700000000000D+00  0.0000000000000D+00  0.0000000000000D+00
439  4.3800000000000D+00  0.0000000000000D+00  0.0000000000000D+00
440  4.3900000000000D+00  0.0000000000000D+00  0.0000000000000D+00
441  4.4000000000000D+00  0.0000000000000D+00  0.0000000000000D+00
442  4.4100000000000D+00  0.0000000000000D+00  0.0000000000000D+00
443  4.4200000000000D+00  0.0000000000000D+00  0.0000000000000D+00